 &FCI NORB=   5,NELEC= 7,MS2=3,
  ORBSYM=1,1,1,1,1,
  ISYM=1,
 &END
 0.9360827641477696    1    1    1    1
 2.651939376579235e-08    1    1    2    1
 0.855027019348801    1    1    2    2
 -1.045290224172197e-07    1    1    3    1
 0.0009964340022509395    1    1    3    2
 0.8758896954614532    1    1    3    3
 0.002127198592286365    1    1    4    1
 -4.998792400333157e-08    1    1    4    2
 6.710858452707732e-07    1    1    4    3
 0.8692436680221811    1    1    4    4
 -3.587456541694848e-08    1    1    5    1
 0.0009626329254824082    1    1    5    2
 0.01589191935038425    1    1    5    3
 1.622557251101443e-07    1    1    5    4
 0.8888702809920486    1    1    5    5
 2.651939376418637e-08    2    1    1    1
 0.04117897118614507    2    1    2    1
 1.527762436491177e-08    2    1    2    2
 -0.001067425363552656    2    1    3    1
 -9.932320287387585e-08    2    1    3    2
 -5.837608420922583e-08    2    1    3    3
 1.409199284534678e-08    2    1    4    1
 0.00169221551452108    2    1    4    2
 0.01682571613239733    2    1    4    3
 4.576678074585243e-07    2    1    4    4
 6.714388055313186e-06    2    1    5    1
 3.392147681769923e-08    2    1    5    2
 -4.026077601683865e-07    2    1    5    3
 -0.007888195324533834    2    1    5    4
 -3.428138799027711e-07    2    1    5    5
 0.8550270193488013    2    2    1    1
 1.527762436576304e-08    2    2    2    1
 0.9381886409653816    2    2    2    2
 8.995361904467038e-08    2    2    3    1
 -0.001314367634504093    2    2    3    2
 0.8812798590754962    2    2    3    3
 -0.001390961477481203    2    2    4    1
 -1.737541857327996e-08    2    2    4    2
 -5.843978870706285e-07    2    2    4    3
 0.8922567840362163    2    2    4    4
 -8.219209504363792e-08    2    2    5    1
 0.001239447136294904    2    2    5    2
 -0.01197174073641894    2    2    5    3
 1.095905137283581e-07    2    2    5    4
 0.8634452044280699    2    2    5    5
 -1.045290224226559e-07    3    1    1    1
 -0.001067425363552667    3    1    2    1
 8.995361904729618e-08    3    1    2    2
 0.03124240547157335    3    1    3    1
 3.850829949654209e-08    3    1    3    2
 -1.184248103500353e-07    3    1    3    3
 -3.385936647804811e-07    3    1    4    1
 -0.007663669207528986    3    1    4    2
 0.006287653650050144    3    1    4    3
 1.621580569921562e-07    3    1    4    4
 -0.00741016727159694    3    1    5    1
 1.316699247056854e-07    3    1    5    2
 2.537376419190073e-08    3    1    5    3
 0.01208863863877301    3    1    5    4
 -5.41368374247074e-07    3    1    5    5
 0.0009964340022508586    3    2    1    1
 -9.932320287375487e-08    3    2    2    1
 -0.001314367634504235    3    2    2    2
 3.850829949703879e-08    3    2    3    1
 0.02901849635769197    3    2    3    2
 -0.001435693916451912    3    2    3    3
 -0.009103182522027544    3    2    4    1
 2.827687755737367e-07    3    2    4    2
 -1.082391827318667e-07    3    2    4    3
 0.005504212671221228    3    2    4    4
 2.725001482293406e-07    3    2    5    1
 0.00655618350836398    3    2    5    2
 0.008500686282737585    3    2    5    3
 -1.258025319719514e-07    3    2    5    4
 -0.009912394116261419    3    2    5    5
 0.8758896954614529    3    3    1    1
 -5.83760842081196e-08    3    3    2    1
 0.8812798590754959    3    3    2    2
 -1.18424810350811e-07    3    3    3    1
 -0.001435693916452002    3    3    3    2
 0.9415763344669825    3    3    3    3
 -0.01031202141817891    3    3    4    1
 1.995726433448311e-07    3    3    4    2
 -5.838906586474926e-09    3    3    4    3
 0.8688317760387384    3    3    4    4
 -8.604370190008911e-08    3    3    5    1
 -0.01583330550373826    3    3    5    2
 0.001346519181378827    3    3    5    3
 -6.360664008007771e-08    3    3    5    4
 0.8691480638503777    3    3    5    5
 0.002127198592286203    4    1    1    1
 1.409199284464788e-08    4    1    2    1
 -0.001390961477481167    4    1    2    2
 -3.38593664779939e-07    4    1    3    1
 -0.009103182522027563    4    1    3    2
 -0.01031202141817892    4    1    3    3
 0.03614921413386033    4    1    4    1
 -2.139960943558216e-07    4    1    4    2
 -1.373609727060986e-07    4    1    4    3
 0.002153481825071501    4    1    4    4
 -4.033139384794532e-08    4    1    5    1
 0.002887927295190673    4    1    5    2
 -0.007581397136694689    4    1    5    3
 -6.081931680142159e-08    4    1    5    4
 0.01732801072515304    4    1    5    5
 -4.99879240028568e-08    4    2    1    1
 0.001692215514521073    4    2    2    1
 -1.737541857463797e-08    4    2    2    2
 -0.007663669207528981    4    2    3    1
 2.827687755739224e-07    4    2    3    2
 1.995726433378691e-07    4    2    3    3
 -2.139960943548022e-07    4    2    4    1
 0.02520616470981311    4    2    4    2
 -0.003481272874914838    4    2    4    3
 -1.577721267896281e-08    4    2    4    4
 0.004975732825242909    4    2    5    1
 -1.694122395033108e-08    4    2    5    2
 2.000862100597799e-07    4    2    5    3
 -0.008486647889455799    4    2    5    4
 -2.004823389726168e-07    4    2    5    5
 6.710858452706139e-07    4    3    1    1
 0.01682571613239732    4    3    2    1
 -5.843978870606051e-07    4    3    2    2
 0.006287653650050132    4    3    3    1
 -1.082391827320964e-07    4    3    3    2
 -5.83890657230237e-09    4    3    3    3
 -1.373609727067694e-07    4    3    4    1
 -0.003481272874914836    4    3    4    2
 0.0378537766403916    4    3    4    3
 -9.465182523832899e-09    4    3    4    4
 -0.004571809051151087    4    3    5    1
 -6.947974629192158e-08    4    3    5    2
 7.395537381478223e-08    4    3    5    3
 0.001128095518837593    4    3    5    4
 -1.192759902236027e-07    4    3    5    5
 0.8692436680221818    4    4    1    1
 4.576678074582165e-07    4    4    2    1
 0.892256784036216    4    4    2    2
 1.621580569877889e-07    4    4    3    1
 0.005504212671221164    4    4    3    2
 0.8688317760387385    4    4    3    3
 0.002153481825071489    4    4    4    1
 -1.57772126839908e-08    4    4    4    2
 -9.465182516455242e-09    4    4    4    3
 0.9477776407546796    4    4    4    4
 8.522202521456213e-08    4    4    5    1
 0.01805741561555511    4    4    5    2
 -0.0008538287770610076    4    4    5    3
 8.293612348846986e-08    4    4    5    4
 0.8737945005658155    4    4    5    5
 -3.587456541689427e-08    5    1    1    1
 6.714388055316437e-06    5    1    2    1
 -8.219209504540007e-08    5    1    2    2
 -0.007410167271596953    5    1    3    1
 2.725001482293944e-07    5    1    3    2
 -8.604370190012405e-08    5    1    3    3
 -4.033139384789281e-08    5    1    4    1
 0.004975732825242914    5    1    4    2
 -0.004571809051151095    5    1    4    3
 8.52220252142572e-08    5    1    4    4
 0.0247935599982569    5    1    5    1
 1.737804282854724e-07    5    1    5    2
 2.17282637467026e-07    5    1    5    3
 -0.007645850727621647    5    1    5    4
 -2.945285059028832e-08    5    1    5    5
 0.0009626329254824771    5    2    1    1
 3.392147681744363e-08    5    2    2    1
 0.001239447136294898    5    2    2    2
 1.3166992470559e-07    5    2    3    1
 0.00655618350836398    5    2    3    2
 -0.01583330550373824    5    2    3    3
 0.002887927295190673    5    2    4    1
 -1.694122395072601e-08    5    2    4    2
 -6.947974629198405e-08    5    2    4    3
 0.01805741561555517    5    2    4    4
 1.737804282854591e-07    5    2    5    1
 0.03795260038791579    5    2    5    2
 0.004340831394072066    5    2    5    3
 8.990395041817245e-08    5    2    5    4
 0.001193592646426528    5    2    5    5
 0.01589191935038409    5    3    1    1
 -4.026077601681034e-07    5    3    2    1
 -0.0119717407364191    5    3    2    2
 2.537376419261605e-08    5    3    3    1
 0.008500686282737547    5    3    3    2
 0.001346519181378886    5    3    3    3
 -0.007581397136694652    5    3    4    1
 2.000862100601282e-07    5    3    4    2
 7.395537381385192e-08    5    3    4    3
 -0.000853828777060968    5    3    4    4
 2.172826374670532e-07    5    3    5    1
 0.004340831394072064    5    3    5    2
 0.03583780204810181    5    3    5    3
 5.296990306593129e-08    5    3    5    4
 0.001106794176400257    5    3    5    5
 1.622557251113843e-07    5    4    1    1
 -0.007888195324533836    5    4    2    1
 1.095905137305806e-07    5    4    2    2
 0.01208863863877302    5    4    3    1
 -1.258025319711413e-07    5    4    3    2
 -6.360664007914068e-08    5    4    3    3
 -6.081931680140465e-08    5    4    4    1
 -0.008486647889455808    5    4    4    2
 0.001128095518837593    5    4    4    3
 8.293612348696214e-08    5    4    4    4
 -0.007645850727621647    5    4    5    1
 8.990395042005604e-08    5    4    5    2
 5.296990306630738e-08    5    4    5    3
 0.03509620097081868    5    4    5    4
 7.59791561018397e-08    5    4    5    5
 0.8888702809920479    5    5    1    1
 -3.428138799033771e-07    5    5    2    1
 0.8634452044280698    5    5    2    2
 -5.413683742495955e-07    5    5    3    1
 -0.009912394116261361    5    5    3    2
 0.8691480638503781    5    5    3    3
 0.01732801072515302    5    5    4    1
 -2.004823389721568e-07    5    5    4    2
 -1.19275990227393e-07    5    5    4    3
 0.8737945005658158    5    5    4    4
 -2.945285058998317e-08    5    5    5    1
 0.001193592646426504    5    5    5    2
 0.001106794176400307    5    5    5    3
 7.597915610298224e-08    5    5    5    4
 0.9406797129555914    5    5    5    5
 -5.964066050536575    1    1  0  0
 -1.477913745560435e-07    2    1  0  0
 -5.973495487649516    2    2  0  0
 2.362750715163638e-07    3    1  0  0
 0.002612846874930759    3    2  0  0
 -5.94456649850111    3    3  0  0
 -0.005283626408141961    4    1  0  0
 1.665167837518206e-07    4    2  0  0
 2.160156621500858e-07    4    3  0  0
 -5.966079677972066    4    4  0  0
 2.299827255632695e-07    5    1  0  0
 -0.007329664513876275    5    2  0  0
 0.002181630603715368    5    3  0  0
 -5.222820042312636e-08    5    4  0  0
 -5.977621245256597    5    5  0  0
 -3208.005253098278  0  0  0  0
