 &FCI NORB=   5,NELEC= 7,MS2=3,
  ORBSYM=1,1,1,1,1,
  ISYM=1,
 &END
 0.9300394659893102    1    1    1    1
 -0.0004305941483146941    1    1    2    1
 0.854822626606784    1    1    2    2
 -0.0002722334823076478    1    1    3    1
 -0.000116086689807143    1    1    3    2
 0.8568519626222093    1    1    3    3
 -0.0006587518132265868    1    1    4    1
 -7.510968676775276e-05    1    1    4    2
 0.001134997689229495    1    1    4    3
 0.8785132265111881    1    1    4    4
 9.767100981872799e-05    1    1    5    1
 9.573304502775819e-05    1    1    5    2
 -0.0001303832110398292    1    1    5    3
 -0.002025246229225383    1    1    5    4
 0.8784086945776861    1    1    5    5
 -0.0004305941483146234    2    1    1    1
 0.04134669160515844    2    1    2    1
 -0.0002797085376411237    2    1    2    2
 1.810813044834595e-05    2    1    3    1
 0.0004259844155115912    2    1    3    2
 -0.002765976757015521    2    1    3    3
 4.027693521117019e-06    2    1    4    1
 -4.194398254135422e-05    2    1    4    2
 0.000117408716626003    2    1    4    3
 0.0007577672276657678    2    1    4    4
 -4.686813672484698e-06    2    1    5    1
 -1.551755318099867e-06    2    1    5    2
 0.0006461679918252902    2    1    5    3
 0.01827131220974211    2    1    5    4
 0.0009623753988754456    2    1    5    5
 0.8548226266067849    2    2    1    1
 -0.0002797085376411656    2    2    2    1
 0.9425893958165561    2    2    2    2
 -0.001029844060632735    2    2    3    1
 -5.465616790664247e-05    2    2    3    2
 0.9050593516659927    2    2    3    3
 -0.000540436712899084    2    2    4    1
 -6.429887670637336e-05    2    2    4    2
 -0.001029894526721867    2    2    4    3
 0.8643975205190334    2    2    4    4
 9.596772075662341e-05    2    2    5    1
 6.779292818748402e-05    2    2    5    2
 8.782975475670265e-05    2    2    5    3
 0.002173051708688187    2    2    5    4
 0.8628099976206476    2    2    5    5
 -0.0002722334823075528    3    1    1    1
 1.810813044835926e-05    3    1    2    1
 -0.001029844060632873    3    1    2    2
 0.04145308847219845    3    1    3    1
 0.00123201133287517    3    1    3    2
 -0.0001736256825141524    3    1    3    3
 -0.0005562263529773885    3    1    4    1
 -7.150426675422513e-05    3    1    4    2
 0.0003061871452820116    3    1    4    3
 0.01846544879072397    3    1    4    4
 4.567679469366577e-05    3    1    5    1
 -0.0003556946034596681    3    1    5    2
 4.541623193833312e-05    3    1    5    3
 3.255889838372117e-05    3    1    5    4
 -0.01798809990628857    3    1    5    5
 -0.0001160866898073136    3    2    1    1
 0.0004259844155114888    3    2    2    1
 -5.465616790678925e-05    3    2    2    2
 0.001232011332875045    3    2    3    1
 0.02007531662155313    3    2    3    2
 -5.422503820296261e-05    3    2    3    3
 -4.862903451781989e-05    3    2    4    1
 0.0005575532688863124    3    2    4    2
 -7.544636084428442e-06    3    2    4    3
 0.001008691695548662    3    2    4    4
 -0.0003037919147264794    3    2    5    1
 -6.17129670236047e-05    3    2    5    2
 -0.0005400974143400612    3    2    5    3
 0.000391579418824796    3    2    5    4
 -0.001079778053819687    3    2    5    5
 0.8568519626222107    3    3    1    1
 -0.002765976757015393    3    3    2    1
 0.9050593516659925    3    3    2    2
 -0.0001736256825139925    3    3    3    1
 -5.422503820229029e-05    3    3    3    2
 0.9478551593640596    3    3    3    3
 -0.001222929664644298    3    3    4    1
 -4.565635951933873e-05    3    3    4    2
 6.784276993484962e-05    3    3    4    3
 0.8669071937916683    3    3    4    4
 6.704606465818275e-06    3    3    5    1
 0.00117673532956984    3    3    5    2
 -3.679991433170118e-05    3    3    5    3
 7.374574061512484e-05    3    3    5    4
 0.8639226607061866    3    3    5    5
 -0.0006587518132265656    4    1    1    1
 4.027693521151772e-06    4    1    2    1
 -0.0005404367128989532    4    1    2    2
 -0.0005562263529773176    4    1    3    1
 -4.862903451787704e-05    4    1    3    2
 -0.001222929664644097    4    1    3    3
 0.02532551779585672    4    1    4    1
 -0.0006042900786034796    4    1    4    2
 -0.009479558168092336    4    1    4    3
 -0.0006577462231750768    4    1    4    4
 0.00104303052376885    4    1    5    1
 -0.009344319291870585    4    1    5    2
 0.0008914446250035269    4    1    5    3
 -3.331484269207774e-05    4    1    5    4
 1.819113438512854e-05    4    1    5    5
 -7.510968676808609e-05    4    2    1    1
 -4.194398254132238e-05    4    2    2    1
 -6.429887670663055e-05    4    2    2    2
 -7.150426675423913e-05    4    2    3    1
 0.0005575532688863118    4    2    3    2
 -4.565635951936747e-05    4    2    3    3
 -0.0006042900786034848    4    2    4    1
 0.03621162637139562    4    2    4    2
 -0.0005547350333834878    4    2    4    3
 -5.114158148883582e-05    4    2    4    4
 -0.008732186825861759    4    2    5    1
 -0.001036118266316066    4    2    5    2
 -0.01608490894358042    4    2    5    3
 0.000550647651236545    4    2    5    4
 -4.154782542616943e-05    4    2    5    5
 0.001134997689229751    4    3    1    1
 0.0001174087166259663    4    3    2    1
 -0.001029894526721715    4    3    2    2
 0.0003061871452819816    4    3    3    1
 -7.544636084488855e-06    4    3    3    2
 6.784276993490684e-05    4    3    3    3
 -0.009479558168092327    4    3    4    1
 -0.0005547350333834501    4    3    4    2
 0.03562710799538145    4    3    4    3
 5.562981205826423e-05    4    3    4    4
 -0.000931090701266942    4    3    5    1
 0.01572769760293381    4    3    5    2
 2.052166376040332e-06    4    3    5    3
 8.150035270554985e-06    4    3    5    4
 9.67126036375283e-05    4    3    5    5
 0.8785132265111886    4    4    1    1
 0.0007577672276658619    4    4    2    1
 0.8643975205190324    4    4    2    2
 0.01846544879072403    4    4    3    1
 0.001008691695548481    4    4    3    2
 0.866907193791669    4    4    3    3
 -0.0006577462231752327    4    4    4    1
 -5.114158148889263e-05    4    4    4    2
 5.562981205822793e-05    4    4    4    3
 0.9280351061773795    4    4    4    4
 0.0001521392491983121    4    4    5    1
 -0.0009999363043818911    4    4    5    2
 -5.061993390681474e-05    4    4    5    3
 5.905181616848443e-05    4    4    5    4
 0.8563995427337763    4    4    5    5
 9.767100981860556e-05    5    1    1    1
 -4.68681367252349e-06    5    1    2    1
 9.596772075659903e-05    5    1    2    2
 4.56767946935757e-05    5    1    3    1
 -0.0003037919147265059    5    1    3    2
 6.704606465660028e-06    5    1    3    3
 0.001043030523768834    5    1    4    1
 -0.008732186825861828    5    1    4    2
 -0.0009310907012669099    5    1    4    3
 0.000152139249198026    5    1    4    4
 0.02453844519679243    5    1    5    1
 -0.0006947734978941546    5    1    5    2
 0.009066873119004591    5    1    5    3
 -0.000337565597362994    5    1    5    4
 9.963123646316847e-05    5    1    5    5
 9.573304502767453e-05    5    2    1    1
 -1.551755318084081e-06    5    2    2    1
 6.779292818745667e-05    5    2    2    2
 -0.0003556946034596391    5    2    3    1
 -6.171296702359794e-05    5    2    3    2
 0.001176735329569852    5    2    3    3
 -0.009344319291870573    5    2    4    1
 -0.001036118266316063    5    2    4    2
 0.0157276976029338    5    2    4    3
 -0.0009999363043817838    5    2    4    4
 -0.0006947734978941663    5    2    5    1
 0.03611298190081744    5    2    5    2
 0.0005122803324214449    5    2    5    3
 -7.160721873996972e-06    5    2    5    4
 8.585421362743194e-05    5    2    5    5
 -0.0001303832110396448    5    3    1    1
 0.0006461679918253152    5    3    2    1
 8.782975475677242e-05    5    3    2    2
 4.541623193838556e-05    5    3    3    1
 -0.0005400974143400871    5    3    3    2
 -3.679991433157135e-05    5    3    3    3
 0.0008914446250035403    5    3    4    1
 -0.01608490894358038    5    3    4    2
 2.052166376029926e-06    5    3    4    3
 -5.061993390676166e-05    5    3    4    4
 0.009066873119004563    5    3    5    1
 0.0005122803324214501    5    3    5    2
 0.03627304016893919    5    3    5    3
 -5.270259247477363e-06    5    3    5    4
 -3.79697738755369e-05    5    3    5    5
 -0.002025246229225523    5    4    1    1
 0.01827131220974215    5    4    2    1
 0.002173051708688169    5    4    2    2
 3.255889838374509e-05    5    4    3    1
 0.0003915794188247629    5    4    3    2
 7.374574061514216e-05    5    4    3    3
 -3.331484269207659e-05    5    4    4    1
 0.0005506476512365285    5    4    4    2
 8.15003527054962e-06    5    4    4    3
 5.905181616853127e-05    5    4    4    4
 -0.0003375655973630262    5    4    5    1
 -7.160721873975071e-06    5    4    5    2
 -5.270259247468581e-06    5    4    5    3
 0.03596829965326446    5    4    5    4
 0.0001008461708492938    5    4    5    5
 0.8784086945776867    5    5    1    1
 0.0009623753988753414    5    5    2    1
 0.8628099976206478    5    5    2    2
 -0.01798809990628857    5    5    3    1
 -0.001079778053819791    5    5    3    2
 0.8639226607061867    5    5    3    3
 1.819113438511873e-05    5    5    4    1
 -4.15478254261113e-05    5    5    4    2
 9.67126036373804e-05    5    5    4    3
 0.8563995427337764    5    5    4    4
 9.963123646327017e-05    5    5    5    1
 8.585421362743498e-05    5    5    5    2
 -3.796977387559089e-05    5    5    5    3
 0.0001008461708492253    5    5    5    4
 0.9248490652399031    5    5    5    5
 -5.482408070199582    1    1  0  0
 0.002034392660408126    2    1  0  0
 -5.516793380861039    2    2  0  0
 0.002396095448739855    3    1  0  0
 0.0004269656149275618    3    2  0  0
 -5.531835223270819    3    3  0  0
 0.003571689040577666    4    1  0  0
 0.0003552434867591689    4    2  0  0
 -0.0003443454801639832    4    3  0  0
 -5.452030603965912    4    4  0  0
 -0.0005510079492219756    5    1  0  0
 -0.0005094249755199553    5    2  0  0
 0.000162793121717106    5    3  0  0
 -0.0004412591840399334    5    4  0  0
 -5.435507539909551    5    5  0  0
 -2594.74521520788  0  0  0  0
