[Molden Format]
made by pyscf v[2.9.0]
[Atoms] (AU)
Co   1   27     8.53649761702025    12.61522579249774    17.88797741978166
O   2   8     0.20169046927483    10.80458470624572     7.71686670501264
O   3   8    -0.38291520462062     7.33126808929514    10.08667775152346
N   4   7     4.15934389195144     9.10717600937765    18.23285243751479
N   5   7     6.19730013372738     9.80575106584561    19.66842068256313
N   6   7     5.59672627407936    11.98197856815598    15.35837113217763
N   7   7     9.03512075224798    15.36504186539734    14.96317270774734
N   8   7     7.44476504033652    15.02555256711923    12.93133917861498
C   9   6     4.03284562517305    12.40191350755683    11.14301575789408
H   10   1     4.06822129822491    13.23394102294158     9.55216871719023
C   11   6     3.83759912198299     6.92505256155863    21.72315769232521
H   12   1     3.28245427836951     5.79278535950299    23.00155741559348
C   13   6    10.40184627457842    17.38427092127885    14.37954969143666
H   14   1    11.68338294321346    18.07696892949942    15.42897130019138
C   15   6     2.70529412540485     7.38816774290579    19.45257616461531
H   16   1     1.18531181437219     6.64641244449152    18.84676776360224
C   17   6     5.98795627364807     8.46744702442864    21.77323543462619
H   18   1     7.14735994285247     8.54201561730398    23.13988536791164
C   19   6     0.63213228592826     9.55655288179922     9.55933077920233
C   20   6    -2.28335607631196     6.44428733820804     8.34057081242534
H   21   1    -2.90921447150667     4.79200530119458     8.89390151895924
H   22   1    -3.68712023068387     7.65112313313902     8.28809311794617
H   23   1    -1.54076929840288     6.28730778904042     6.64954938985829
C   24   6     2.29367398095209     9.22883657727715    13.97409005414998
H   25   1     1.15878005958330     7.88070596001243    14.31752888002844
C   26   6     9.70529322506374    18.36543562241427    12.01117483678052
H   27   1    10.40468086376526    19.79794251114082    11.18356928052725
C   28   6     5.61715421348591    13.09463041303865    13.09400680341754
C   29   6     3.95765342267661    10.12169437661165    15.78197214026013
C   30   6     2.37024568351947    10.40426512401786    11.63434455028100
C   31   6     7.82214334741216    16.83481415330031    11.14777786772798
H   32   1     6.94487578860532    16.99965496314612     9.59034118490644
O   33   8    16.87130476476566    10.80458470624572    28.05906923728944
O   34   8    17.45591043866111     7.33126808929514    25.68927708803987
N   35   7    12.91365134208905     9.10717600937765    17.54310240204854
N   36   7    10.87571399757435     9.80575106584561    16.10753415700020
N   37   7    11.47628785722237    11.98197856815598    20.41756481012446
N   38   7     8.03787448179251    15.36504186539734    20.81278213181599
N   39   7     9.62823019370397    15.02555256711923    22.84461566094835
C   40   6    13.04014960886744    12.40191350755683    24.63293908166925
H   41   1    13.00479283307683    13.23394102294158    26.22376722511185
C   42   6    13.23541500931874     6.92505256155863    14.05279714723812
H   43   1    13.79055985293222     5.79280425676423    12.77439742396985
C   44   6     6.67114895946207    17.38427092127885    21.39640514812667
H   45   1     5.38961229082703    18.07696892949942    20.34698353937195
C   46   6    14.36770110863564     7.38816774290579    16.32337867494802
H   47   1    15.88770231692955     6.64641244449152    16.92918707596109
C   48   6    11.08503896039242     8.46744702442864    14.00270050767590
H   49   1     9.92565418844927     8.54201561730398    12.63606947165169
C   50   6    16.44088184537348     9.55653398453797    26.21662406036100
C   51   6    19.35635131035245     6.44428733820804    27.43538402713799
H   52   1    19.98222860280840     4.79200530119458    26.88205332060409
H   53   1    20.76011546472436     7.65112313313902    27.48786172161716
H   54   1    18.61378342970461     6.28730778904042    29.12638655244379
C   55   6    14.77932125308840     9.22883657727715    21.80186478541335
H   56   1    15.91421517445720     7.88070596001243    21.45840706227365
C   57   6     7.36772090623800    18.36543562241427    23.76478000278281
H   58   1     6.66831437027522    19.79794251114082    24.59238555903609
C   59   6    11.45584102055458    13.09463041303865    22.68194803614579
C   60   6    13.11534181136388    10.12169437661165    19.99398269930320
C   61   6    14.70274955052103    10.40426512401786    24.14161028928233
C   62   6     9.25087078388957    16.83481415330031    24.62815807457410
H   63   1    10.12811944543517    16.99965496314612    26.18561365465689
[GTO]
1 0
 s    8 1.00
          325817.01553  0.0002398353536197
          48839.636453  0.0018596633237351
          11114.937307  0.0096709152704258
          3146.1603642   0.039315971778749
          1024.4378465    0.12799461486096
          368.02508816    0.30391910494459
          142.91229205    0.43473318053545
          56.482649209    0.22848233723692
 s    4 1.00
          356.40298318  -0.024844682079028
          110.31165215   -0.11738814789025
          17.659634834    0.55388573077371
          7.5059030479    0.53413758009873
 s    2 1.00
          11.501807176   -0.37791187256515
          1.9081994606     1.1725032128157
 s    1 1.00
         0.79396696891                   1
 s    1 1.00
         0.12444448829                   1
 s    1 1.00
        0.044444645379                   1
 p    6 1.00
          1731.1369144  0.0027113690065776
          409.91750438   0.021984010744819
          131.45648578    0.10310407884161
          48.987439714    0.29655312888033
          19.537078992     0.4781436097905
          7.9287281634    0.27869112839934
 p    3 1.00
          31.076017584  -0.020509295921844
          4.2835180697    0.38746974460797
          1.7022921563    0.67420506418877
 p    1 1.00
         0.64202908602                   1
 p    1 1.00
              0.141308                   1
 d    4 1.00
          68.140745239   0.019697336268202
          19.685241019    0.12111871584173
          6.9322128825    0.37944647925134
          2.6025125694    0.64564604205304
 d    1 1.00
         0.94016837302                   1
 d    1 1.00
         0.30381457794                   1
 d    1 1.00
                 0.098                   1
 f    1 1.00
                 1.903                   1

2 0
 s    6 1.00
             5484.6717   0.001831099805527
             825.23495   0.013950098518422
             188.04696    0.06844509273075
               52.9645    0.23271427528445
              16.89757    0.47019295006289
             5.7996353    0.35852086192309
 s    3 1.00
             15.539616   -0.11077750382508
             3.5999336   -0.14802630511126
             1.0137618     1.1307670390447
 s    1 1.00
             0.2700058                   1
 p    3 1.00
             15.539616   0.070874299543311
             3.5999336    0.33975279781076
             1.0137618    0.72715859531445
 p    1 1.00
             0.2700058                   1
 d    1 1.00
                   0.8                   1

3 0
 s    6 1.00
             5484.6717   0.001831099805527
             825.23495   0.013950098518422
             188.04696    0.06844509273075
               52.9645    0.23271427528445
              16.89757    0.47019295006289
             5.7996353    0.35852086192309
 s    3 1.00
             15.539616   -0.11077750382508
             3.5999336   -0.14802630511126
             1.0137618     1.1307670390447
 s    1 1.00
             0.2700058                   1
 p    3 1.00
             15.539616   0.070874299543311
             3.5999336    0.33975279781076
             1.0137618    0.72715859531445
 p    1 1.00
             0.2700058                   1
 d    1 1.00
                   0.8                   1

4 0
 s    6 1.00
          19730.800647  0.00058626402628763
          2957.8958745  0.0045428820586397
          673.22133595   0.023558413450084
          190.68249494   0.094709193292923
          62.295441898    0.29719784913376
          22.654161182    0.66916246895232
 s    2 1.00
          8.9791477428    0.64596683630063
           3.686300237    0.38700574393705
 s    1 1.00
         0.84660076805                   1
 s    1 1.00
         0.33647133771                   1
 s    1 1.00
         0.13647653675                   1
 p    4 1.00
           49.20038051   0.011448825101764
          11.346790537   0.078422337970864
          3.4273972411     0.3081809473883
          1.1785525134    0.72027196368413
 p    1 1.00
         0.41642204972                   1
 p    1 1.00
         0.14260826011                   1
 d    1 1.00
                 1.654                   1
 d    1 1.00
                 0.469                   1
 f    1 1.00
                 1.093                   1

5 0
 s    6 1.00
          19730.800647  0.00058626402628763
          2957.8958745  0.0045428820586397
          673.22133595   0.023558413450084
          190.68249494   0.094709193292923
          62.295441898    0.29719784913376
          22.654161182    0.66916246895232
 s    2 1.00
          8.9791477428    0.64596683630063
           3.686300237    0.38700574393705
 s    1 1.00
         0.84660076805                   1
 s    1 1.00
         0.33647133771                   1
 s    1 1.00
         0.13647653675                   1
 p    4 1.00
           49.20038051   0.011448825101764
          11.346790537   0.078422337970864
          3.4273972411     0.3081809473883
          1.1785525134    0.72027196368413
 p    1 1.00
         0.41642204972                   1
 p    1 1.00
         0.14260826011                   1
 d    1 1.00
                 1.654                   1
 d    1 1.00
                 0.469                   1
 f    1 1.00
                 1.093                   1

6 0
 s    6 1.00
          19730.800647  0.00058626402628763
          2957.8958745  0.0045428820586397
          673.22133595   0.023558413450084
          190.68249494   0.094709193292923
          62.295441898    0.29719784913376
          22.654161182    0.66916246895232
 s    2 1.00
          8.9791477428    0.64596683630063
           3.686300237    0.38700574393705
 s    1 1.00
         0.84660076805                   1
 s    1 1.00
         0.33647133771                   1
 s    1 1.00
         0.13647653675                   1
 p    4 1.00
           49.20038051   0.011448825101764
          11.346790537   0.078422337970864
          3.4273972411     0.3081809473883
          1.1785525134    0.72027196368413
 p    1 1.00
         0.41642204972                   1
 p    1 1.00
         0.14260826011                   1
 d    1 1.00
                 1.654                   1
 d    1 1.00
                 0.469                   1
 f    1 1.00
                 1.093                   1

7 0
 s    6 1.00
          19730.800647  0.00058626402628763
          2957.8958745  0.0045428820586397
          673.22133595   0.023558413450084
          190.68249494   0.094709193292923
          62.295441898    0.29719784913376
          22.654161182    0.66916246895232
 s    2 1.00
          8.9791477428    0.64596683630063
           3.686300237    0.38700574393705
 s    1 1.00
         0.84660076805                   1
 s    1 1.00
         0.33647133771                   1
 s    1 1.00
         0.13647653675                   1
 p    4 1.00
           49.20038051   0.011448825101764
          11.346790537   0.078422337970864
          3.4273972411     0.3081809473883
          1.1785525134    0.72027196368413
 p    1 1.00
         0.41642204972                   1
 p    1 1.00
         0.14260826011                   1
 d    1 1.00
                 1.654                   1
 d    1 1.00
                 0.469                   1
 f    1 1.00
                 1.093                   1

8 0
 s    6 1.00
          19730.800647  0.00058626402628763
          2957.8958745  0.0045428820586397
          673.22133595   0.023558413450084
          190.68249494   0.094709193292923
          62.295441898    0.29719784913376
          22.654161182    0.66916246895232
 s    2 1.00
          8.9791477428    0.64596683630063
           3.686300237    0.38700574393705
 s    1 1.00
         0.84660076805                   1
 s    1 1.00
         0.33647133771                   1
 s    1 1.00
         0.13647653675                   1
 p    4 1.00
           49.20038051   0.011448825101764
          11.346790537   0.078422337970864
          3.4273972411     0.3081809473883
          1.1785525134    0.72027196368413
 p    1 1.00
         0.41642204972                   1
 p    1 1.00
         0.14260826011                   1
 d    1 1.00
                 1.654                   1
 d    1 1.00
                 0.469                   1
 f    1 1.00
                 1.093                   1

9 0
 s    6 1.00
             3047.5249  0.0018347001629433
             457.36951    0.01403730124668
             103.94869   0.068842606114048
             29.210155    0.23218442062076
              9.286663    0.46794134155879
              3.163927    0.36231203217765
 s    3 1.00
             7.8682724   -0.11933240861517
             1.8812885   -0.16085421161283
             0.5442493     1.1434564825515
 s    1 1.00
             0.1687144                   1
 p    3 1.00
             7.8682724   0.068999095584993
             1.8812885    0.31642397975315
             0.5442493    0.74430825237435
 p    1 1.00
             0.1687144                   1
 d    1 1.00
                   0.8                   1

10 0
 s    3 1.00
             18.731137    0.03349459952309
             2.8253937    0.23472694665786
             0.6401217    0.81375731841339
 s    1 1.00
             0.1612778                   1

11 0
 s    6 1.00
             3047.5249  0.0018347001629433
             457.36951    0.01403730124668
             103.94869   0.068842606114048
             29.210155    0.23218442062076
              9.286663    0.46794134155879
              3.163927    0.36231203217765
 s    3 1.00
             7.8682724   -0.11933240861517
             1.8812885   -0.16085421161283
             0.5442493     1.1434564825515
 s    1 1.00
             0.1687144                   1
 p    3 1.00
             7.8682724   0.068999095584993
             1.8812885    0.31642397975315
             0.5442493    0.74430825237435
 p    1 1.00
             0.1687144                   1
 d    1 1.00
                   0.8                   1

12 0
 s    3 1.00
             18.731137    0.03349459952309
             2.8253937    0.23472694665786
             0.6401217    0.81375731841339
 s    1 1.00
             0.1612778                   1

13 0
 s    6 1.00
             3047.5249  0.0018347001629433
             457.36951    0.01403730124668
             103.94869   0.068842606114048
             29.210155    0.23218442062076
              9.286663    0.46794134155879
              3.163927    0.36231203217765
 s    3 1.00
             7.8682724   -0.11933240861517
             1.8812885   -0.16085421161283
             0.5442493     1.1434564825515
 s    1 1.00
             0.1687144                   1
 p    3 1.00
             7.8682724   0.068999095584993
             1.8812885    0.31642397975315
             0.5442493    0.74430825237435
 p    1 1.00
             0.1687144                   1
 d    1 1.00
                   0.8                   1

14 0
 s    3 1.00
             18.731137    0.03349459952309
             2.8253937    0.23472694665786
             0.6401217    0.81375731841339
 s    1 1.00
             0.1612778                   1

15 0
 s    6 1.00
             3047.5249  0.0018347001629433
             457.36951    0.01403730124668
             103.94869   0.068842606114048
             29.210155    0.23218442062076
              9.286663    0.46794134155879
              3.163927    0.36231203217765
 s    3 1.00
             7.8682724   -0.11933240861517
             1.8812885   -0.16085421161283
             0.5442493     1.1434564825515
 s    1 1.00
             0.1687144                   1
 p    3 1.00
             7.8682724   0.068999095584993
             1.8812885    0.31642397975315
             0.5442493    0.74430825237435
 p    1 1.00
             0.1687144                   1
 d    1 1.00
                   0.8                   1

16 0
 s    3 1.00
             18.731137    0.03349459952309
             2.8253937    0.23472694665786
             0.6401217    0.81375731841339
 s    1 1.00
             0.1612778                   1

17 0
 s    6 1.00
             3047.5249  0.0018347001629433
             457.36951    0.01403730124668
             103.94869   0.068842606114048
             29.210155    0.23218442062076
              9.286663    0.46794134155879
              3.163927    0.36231203217765
 s    3 1.00
             7.8682724   -0.11933240861517
             1.8812885   -0.16085421161283
             0.5442493     1.1434564825515
 s    1 1.00
             0.1687144                   1
 p    3 1.00
             7.8682724   0.068999095584993
             1.8812885    0.31642397975315
             0.5442493    0.74430825237435
 p    1 1.00
             0.1687144                   1
 d    1 1.00
                   0.8                   1

18 0
 s    3 1.00
             18.731137    0.03349459952309
             2.8253937    0.23472694665786
             0.6401217    0.81375731841339
 s    1 1.00
             0.1612778                   1

19 0
 s    6 1.00
             3047.5249  0.0018347001629433
             457.36951    0.01403730124668
             103.94869   0.068842606114048
             29.210155    0.23218442062076
              9.286663    0.46794134155879
              3.163927    0.36231203217765
 s    3 1.00
             7.8682724   -0.11933240861517
             1.8812885   -0.16085421161283
             0.5442493     1.1434564825515
 s    1 1.00
             0.1687144                   1
 p    3 1.00
             7.8682724   0.068999095584993
             1.8812885    0.31642397975315
             0.5442493    0.74430825237435
 p    1 1.00
             0.1687144                   1
 d    1 1.00
                   0.8                   1

20 0
 s    6 1.00
             3047.5249  0.0018347001629433
             457.36951    0.01403730124668
             103.94869   0.068842606114048
             29.210155    0.23218442062076
              9.286663    0.46794134155879
              3.163927    0.36231203217765
 s    3 1.00
             7.8682724   -0.11933240861517
             1.8812885   -0.16085421161283
             0.5442493     1.1434564825515
 s    1 1.00
             0.1687144                   1
 p    3 1.00
             7.8682724   0.068999095584993
             1.8812885    0.31642397975315
             0.5442493    0.74430825237435
 p    1 1.00
             0.1687144                   1
 d    1 1.00
                   0.8                   1

21 0
 s    3 1.00
             18.731137    0.03349459952309
             2.8253937    0.23472694665786
             0.6401217    0.81375731841339
 s    1 1.00
             0.1612778                   1

22 0
 s    3 1.00
             18.731137    0.03349459952309
             2.8253937    0.23472694665786
             0.6401217    0.81375731841339
 s    1 1.00
             0.1612778                   1

23 0
 s    3 1.00
             18.731137    0.03349459952309
             2.8253937    0.23472694665786
             0.6401217    0.81375731841339
 s    1 1.00
             0.1612778                   1

24 0
 s    6 1.00
             3047.5249  0.0018347001629433
             457.36951    0.01403730124668
             103.94869   0.068842606114048
             29.210155    0.23218442062076
              9.286663    0.46794134155879
              3.163927    0.36231203217765
 s    3 1.00
             7.8682724   -0.11933240861517
             1.8812885   -0.16085421161283
             0.5442493     1.1434564825515
 s    1 1.00
             0.1687144                   1
 p    3 1.00
             7.8682724   0.068999095584993
             1.8812885    0.31642397975315
             0.5442493    0.74430825237435
 p    1 1.00
             0.1687144                   1
 d    1 1.00
                   0.8                   1

25 0
 s    3 1.00
             18.731137    0.03349459952309
             2.8253937    0.23472694665786
             0.6401217    0.81375731841339
 s    1 1.00
             0.1612778                   1

26 0
 s    6 1.00
             3047.5249  0.0018347001629433
             457.36951    0.01403730124668
             103.94869   0.068842606114048
             29.210155    0.23218442062076
              9.286663    0.46794134155879
              3.163927    0.36231203217765
 s    3 1.00
             7.8682724   -0.11933240861517
             1.8812885   -0.16085421161283
             0.5442493     1.1434564825515
 s    1 1.00
             0.1687144                   1
 p    3 1.00
             7.8682724   0.068999095584993
             1.8812885    0.31642397975315
             0.5442493    0.74430825237435
 p    1 1.00
             0.1687144                   1
 d    1 1.00
                   0.8                   1

27 0
 s    3 1.00
             18.731137    0.03349459952309
             2.8253937    0.23472694665786
             0.6401217    0.81375731841339
 s    1 1.00
             0.1612778                   1

28 0
 s    6 1.00
             3047.5249  0.0018347001629433
             457.36951    0.01403730124668
             103.94869   0.068842606114048
             29.210155    0.23218442062076
              9.286663    0.46794134155879
              3.163927    0.36231203217765
 s    3 1.00
             7.8682724   -0.11933240861517
             1.8812885   -0.16085421161283
             0.5442493     1.1434564825515
 s    1 1.00
             0.1687144                   1
 p    3 1.00
             7.8682724   0.068999095584993
             1.8812885    0.31642397975315
             0.5442493    0.74430825237435
 p    1 1.00
             0.1687144                   1
 d    1 1.00
                   0.8                   1

29 0
 s    6 1.00
             3047.5249  0.0018347001629433
             457.36951    0.01403730124668
             103.94869   0.068842606114048
             29.210155    0.23218442062076
              9.286663    0.46794134155879
              3.163927    0.36231203217765
 s    3 1.00
             7.8682724   -0.11933240861517
             1.8812885   -0.16085421161283
             0.5442493     1.1434564825515
 s    1 1.00
             0.1687144                   1
 p    3 1.00
             7.8682724   0.068999095584993
             1.8812885    0.31642397975315
             0.5442493    0.74430825237435
 p    1 1.00
             0.1687144                   1
 d    1 1.00
                   0.8                   1

30 0
 s    6 1.00
             3047.5249  0.0018347001629433
             457.36951    0.01403730124668
             103.94869   0.068842606114048
             29.210155    0.23218442062076
              9.286663    0.46794134155879
              3.163927    0.36231203217765
 s    3 1.00
             7.8682724   -0.11933240861517
             1.8812885   -0.16085421161283
             0.5442493     1.1434564825515
 s    1 1.00
             0.1687144                   1
 p    3 1.00
             7.8682724   0.068999095584993
             1.8812885    0.31642397975315
             0.5442493    0.74430825237435
 p    1 1.00
             0.1687144                   1
 d    1 1.00
                   0.8                   1

31 0
 s    6 1.00
             3047.5249  0.0018347001629433
             457.36951    0.01403730124668
             103.94869   0.068842606114048
             29.210155    0.23218442062076
              9.286663    0.46794134155879
              3.163927    0.36231203217765
 s    3 1.00
             7.8682724   -0.11933240861517
             1.8812885   -0.16085421161283
             0.5442493     1.1434564825515
 s    1 1.00
             0.1687144                   1
 p    3 1.00
             7.8682724   0.068999095584993
             1.8812885    0.31642397975315
             0.5442493    0.74430825237435
 p    1 1.00
             0.1687144                   1
 d    1 1.00
                   0.8                   1

32 0
 s    3 1.00
             18.731137    0.03349459952309
             2.8253937    0.23472694665786
             0.6401217    0.81375731841339
 s    1 1.00
             0.1612778                   1

33 0
 s    6 1.00
             5484.6717   0.001831099805527
             825.23495   0.013950098518422
             188.04696    0.06844509273075
               52.9645    0.23271427528445
              16.89757    0.47019295006289
             5.7996353    0.35852086192309
 s    3 1.00
             15.539616   -0.11077750382508
             3.5999336   -0.14802630511126
             1.0137618     1.1307670390447
 s    1 1.00
             0.2700058                   1
 p    3 1.00
             15.539616   0.070874299543311
             3.5999336    0.33975279781076
             1.0137618    0.72715859531445
 p    1 1.00
             0.2700058                   1
 d    1 1.00
                   0.8                   1

34 0
 s    6 1.00
             5484.6717   0.001831099805527
             825.23495   0.013950098518422
             188.04696    0.06844509273075
               52.9645    0.23271427528445
              16.89757    0.47019295006289
             5.7996353    0.35852086192309
 s    3 1.00
             15.539616   -0.11077750382508
             3.5999336   -0.14802630511126
             1.0137618     1.1307670390447
 s    1 1.00
             0.2700058                   1
 p    3 1.00
             15.539616   0.070874299543311
             3.5999336    0.33975279781076
             1.0137618    0.72715859531445
 p    1 1.00
             0.2700058                   1
 d    1 1.00
                   0.8                   1

35 0
 s    6 1.00
          19730.800647  0.00058626402628763
          2957.8958745  0.0045428820586397
          673.22133595   0.023558413450084
          190.68249494   0.094709193292923
          62.295441898    0.29719784913376
          22.654161182    0.66916246895232
 s    2 1.00
          8.9791477428    0.64596683630063
           3.686300237    0.38700574393705
 s    1 1.00
         0.84660076805                   1
 s    1 1.00
         0.33647133771                   1
 s    1 1.00
         0.13647653675                   1
 p    4 1.00
           49.20038051   0.011448825101764
          11.346790537   0.078422337970864
          3.4273972411     0.3081809473883
          1.1785525134    0.72027196368413
 p    1 1.00
         0.41642204972                   1
 p    1 1.00
         0.14260826011                   1
 d    1 1.00
                 1.654                   1
 d    1 1.00
                 0.469                   1
 f    1 1.00
                 1.093                   1

36 0
 s    6 1.00
          19730.800647  0.00058626402628763
          2957.8958745  0.0045428820586397
          673.22133595   0.023558413450084
          190.68249494   0.094709193292923
          62.295441898    0.29719784913376
          22.654161182    0.66916246895232
 s    2 1.00
          8.9791477428    0.64596683630063
           3.686300237    0.38700574393705
 s    1 1.00
         0.84660076805                   1
 s    1 1.00
         0.33647133771                   1
 s    1 1.00
         0.13647653675                   1
 p    4 1.00
           49.20038051   0.011448825101764
          11.346790537   0.078422337970864
          3.4273972411     0.3081809473883
          1.1785525134    0.72027196368413
 p    1 1.00
         0.41642204972                   1
 p    1 1.00
         0.14260826011                   1
 d    1 1.00
                 1.654                   1
 d    1 1.00
                 0.469                   1
 f    1 1.00
                 1.093                   1

37 0
 s    6 1.00
          19730.800647  0.00058626402628763
          2957.8958745  0.0045428820586397
          673.22133595   0.023558413450084
          190.68249494   0.094709193292923
          62.295441898    0.29719784913376
          22.654161182    0.66916246895232
 s    2 1.00
          8.9791477428    0.64596683630063
           3.686300237    0.38700574393705
 s    1 1.00
         0.84660076805                   1
 s    1 1.00
         0.33647133771                   1
 s    1 1.00
         0.13647653675                   1
 p    4 1.00
           49.20038051   0.011448825101764
          11.346790537   0.078422337970864
          3.4273972411     0.3081809473883
          1.1785525134    0.72027196368413
 p    1 1.00
         0.41642204972                   1
 p    1 1.00
         0.14260826011                   1
 d    1 1.00
                 1.654                   1
 d    1 1.00
                 0.469                   1
 f    1 1.00
                 1.093                   1

38 0
 s    6 1.00
          19730.800647  0.00058626402628763
          2957.8958745  0.0045428820586397
          673.22133595   0.023558413450084
          190.68249494   0.094709193292923
          62.295441898    0.29719784913376
          22.654161182    0.66916246895232
 s    2 1.00
          8.9791477428    0.64596683630063
           3.686300237    0.38700574393705
 s    1 1.00
         0.84660076805                   1
 s    1 1.00
         0.33647133771                   1
 s    1 1.00
         0.13647653675                   1
 p    4 1.00
           49.20038051   0.011448825101764
          11.346790537   0.078422337970864
          3.4273972411     0.3081809473883
          1.1785525134    0.72027196368413
 p    1 1.00
         0.41642204972                   1
 p    1 1.00