 &FCI NORB=   5,NELEC= 7,MS2=3,
  ORBSYM=1,1,1,1,1,
  ISYM=1,
 &END
 0.9359309861988099    1    1    1    1
 -1.247965001716369e-06    1    1    2    1
 0.855109622559271    1    1    2    2
 -1.151449811683639e-06    1    1    3    1
 0.000899849761127968    1    1    3    2
 0.8797909087350279    1    1    3    3
 -0.001940818660132681    1    1    4    1
 1.866158397082024e-06    1    1    4    2
 -3.145898525313103e-05    1    1    4    3
 0.8696404769977469    1    1    4    4
 9.509730913524875e-07    1    1    5    1
 0.002220060730756118    1    1    5    2
 0.01692188859782395    1    1    5    3
 3.584583136032241e-05    1    1    5    4
 0.8854640436950205    1    1    5    5
 -1.247965001715783e-06    2    1    1    1
 0.04104004291094916    2    1    2    1
 -5.433827251011773e-07    2    1    2    2
 0.0001663812874176823    2    1    3    1
 -8.599259942315788e-07    2    1    3    2
 1.048482535850206e-05    2    1    3    3
 -2.117435289452189e-06    2    1    4    1
 -0.002176059401594617    2    1    4    2
 0.01166156511064366    2    1    4    3
 -1.980212908669676e-05    2    1    4    4
 -0.001530097251801396    2    1    5    1
 2.101200890238089e-06    2    1    5    2
 4.484015945496925e-05    2    1    5    3
 -0.01440281407731208    2    1    5    4
 6.821448620893584e-06    2    1    5    5
 0.8551096225592711    2    2    1    1
 -5.433827251016308e-07    2    2    2    1
 0.9379348788264043    2    2    2    2
 -6.591553758497398e-07    2    2    3    1
 0.001535758080509327    2    2    3    2
 0.8703442246106999    2    2    3    3
 0.002538852645274804    2    2    4    1
 -1.838569966024242e-06    2    2    4    2
 3.145406799015883e-05    2    2    4    3
 0.893011876904578    2    2    4    4
 -2.840039758673994e-06    2    2    5    1
 -0.0009427934845814695    2    2    5    2
 -0.01456379218209786    2    2    5    3
 -3.370784341651389e-05    2    2    5    4
 0.874369911141994    2    2    5    5
 -1.151449811683751e-06    3    1    1    1
 0.0001663812874176758    3    1    2    1
 -6.591553758493864e-07    3    1    2    2
 0.02926801127716249    3    1    3    1
 -5.527057192055645e-06    3    1    3    2
 -1.485065468660351e-06    3    1    3    3
 1.562519030894982e-05    3    1    4    1
 -0.006711307449012463    3    1    4    2
 0.0086959994373012    3    1    4    3
 -2.27829794506562e-05    3    1    4    4
 -0.008028514467269645    3    1    5    1
 -2.354349683948503e-05    3    1    5    2
 -7.418296576038924e-06    3    1    5    3
 0.008903724437194772    3    1    5    4
 1.904286408674515e-05    3    1    5    5
 0.0008998497611279751    3    2    1    1
 -8.599259942314747e-07    3    2    2    1
 0.001535758080509047    3    2    2    2
 -5.527057192055633e-06    3    2    3    1
 0.03439506603439775    3    2    3    2
 0.001472437847306413    3    2    3    3
 -0.004904458363190546    3    2    4    1
 -1.574934696426458e-05    3    2    4    2
 8.557273494662657e-06    3    2    4    3
 0.01617318292766834    3    2    4    4
 -2.131985263334069e-05    3    2    5    1
 0.00773274225279378    3    2    5    2
 0.006432525279357034    3    2    5    3
 2.023934174379512e-05    3    2    5    4
 -0.01307024206787958    3    2    5    5
 0.8797909087350281    3    3    1    1
 1.048482535850246e-05    3    3    2    1
 0.8703442246107004    3    3    2    2
 -1.485065468660201e-06    3    3    3    1
 0.001472437847306323    3    3    3    2
 0.9405504369414424    3    3    3    3
 -0.01929454701500001    3    3    4    1
 -1.90866455383957e-05    3    3    4    2
 -1.248750677529541e-07    3    3    4    3
 0.8754078808226594    3    3    4    4
 1.585895212506368e-05    3    3    5    1
 -0.01376573876910902    3    3    5    2
 0.0008579465357435312    3    3    5    3
 -1.820142827835767e-08    3    3    5    4
 0.8706127290551317    3    3    5    5
 -0.001940818660132762    4    1    1    1
 -2.117435289452181e-06    4    1    2    1
 0.002538852645274836    4    1    2    2
 1.562519030894983e-05    4    1    3    1
 -0.004904458363190541    4    1    3    2
 -0.01929454701500008    4    1    3    3
 0.03616543321341891    4    1    4    1
 9.420235177271317e-06    4    1    4    2
 1.066643540441764e-05    4    1    4    3
 -0.001952529538055444    4    1    4    4
 -1.744829215935984e-05    4    1    5    1
 0.00843156315755047    4    1    5    2
 -0.000544690981125133    4    1    5    3
 5.69389836369056e-06    4    1    5    4
 0.0116364634091157    4    1    5    5
 1.866158397081883e-06    4    2    1    1
 -0.002176059401594623    4    2    2    1
 -1.838569966024173e-06    4    2    2    2
 -0.006711307449012474    4    2    3    1
 -1.574934696426459e-05    4    2    3    2
 -1.908664553839579e-05    4    2    3    3
 9.420235177271323e-06    4    2    4    1
 0.02501249252480061    4    2    4    2
 -0.007374355420789173    4    2    4    3
 -1.956808077482362e-06    4    2    4    4
 0.005909481956606587    4    2    5    1
 1.716394068016089e-05    4    2    5    2
 -3.57912018900664e-06    4    2    5    3
 -0.005092393435907842    4    2    5    4
 1.177340211972206e-05    4    2    5    5
 -3.145898525313103e-05    4    3    1    1
 0.01166156511064368    4    3    2    1
 3.145406799015881e-05    4    3    2    2
 0.008695999437301205    4    3    3    1
 8.557273494662664e-06    4    3    3    2
 -1.248750677529597e-07    4    3    3    3
 1.066643540441758e-05    4    3    4    1
 -0.007374355420789159    4    3    4    2
 0.03446110256268284    4    3    4    3
 -1.71578255631546e-07    4    3    4    4
 -0.008242477331581882    4    3    5    1
 -1.653105143378735e-05    4    3    5    2
 3.763433769598791e-07    4    3    5    3
 0.0004575584910984391    4    3    5    4
 -3.400598709658558e-07    4    3    5    5
 0.8696404769977472    4    4    1    1
 -1.980212908669687e-05    4    4    2    1
 0.8930118769045775    4    4    2    2
 -2.278297945065617e-05    4    4    3    1
 0.0161731829276683    4    4    3    2
 0.8754078808226596    4    4    3    3
 -0.001952529538055138    4    4    4    1
 -1.956808077482022e-06    4    4    4    2
 -1.715782556316034e-07    4    4    4    3
 0.9488219608589221    4    4    4    4
 -1.00166522826164e-05    4    4    5    1
 0.00908210518023897    4    4    5    2
 6.386934927093968e-05    4    4    5    3
 7.615014853892917e-07    4    4    5    4
 0.868625934000716    4    4    5    5
 9.509730913525731e-07    5    1    1    1
 -0.001530097251801396    5    1    2    1
 -2.840039758674108e-06    5    1    2    2
 -0.008028514467269649    5    1    3    1
 -2.131985263334078e-05    5    1    3    2
 1.585895212506364e-05    5    1    3    3
 -1.744829215935986e-05    5    1    4    1
 0.005909481956606585    5    1    4    2
 -0.008242477331581883    5    1    4    3
 -1.001665228261632e-05    5    1    4    4
 0.02691469926552845    5    1    5    1
 -3.820547873311601e-06    5    1    5    2
 -1.031107278144604e-05    5    1    5    3
 -0.006824007810447695    5    1    5    4
 1.240208011611393e-06    5    1    5    5
 0.002220060730756128    5    2    1    1
 2.101200890238165e-06    5    2    2    1
 -0.0009427934845813078    5    2    2    2
 -2.354349683948512e-05    5    2    3    1
 0.007732742252793829    5    2    3    2
 -0.013765738769109    5    2    3    3
 0.008431563157550486    5    2    4    1
 1.716394068016092e-05    5    2    4    2
 -1.653105143378737e-05    5    2    4    3
 0.009082105180238801    5    2    4    4
 -3.820547873311614e-06    5    2    5    1
 0.03292316839922095    5    2    5    2
 0.00733244250728745    5    2    5    3
 -6.914381951277519e-06    5    2    5    4
 -0.001045061524763043    5    2    5    5
 0.01692188859782393    5    3    1    1
 4.484015945496925e-05    5    3    2    1
 -0.01456379218209758    5    3    2    2
 -7.418296576038915e-06    5    3    3    1
 0.006432525279357024    5    3    3    2
 0.0008579465357433695    5    3    3    3
 -0.0005446909811249797    5    3    4    1
 -3.579120189006437e-06    5    3    4    2
 3.763433769598477e-07    5    3    4    3
 6.386934927087289e-05    5    3    4    4
 -1.031107278144606e-05    5    3    5    1
 0.007332442507287476    5    3    5    2
 0.03548505469304961    5    3    5    3
 1.209270783495473e-07    5    3    5    4
 0.0008527805735436805    5    3    5    5
 3.584583136032252e-05    5    4    1    1
 -0.01440281407731208    5    4    2    1
 -3.370784341651381e-05    5    4    2    2
 0.008903724437194779    5    4    3    1
 2.023934174379516e-05    5    4    3    2
 -1.820142827833971e-08    5    4    3    3
 5.6938983636906e-06    5    4    4    1
 -0.00509239343590784    5    4    4    2
 0.0004575584910984452    5    4    4    3
 7.615014853891456e-07    5    4    4    4
 -0.006824007810447692    5    4    5    1
 -6.914381951277518e-06    5    4    5    2
 1.209270783495172e-07    5    4    5    3
 0.03878981810612117    5    4    5    4
 7.150093079804524e-07    5    4    5    5
 0.8854640436950203    5    5    1    1
 6.821448620893723e-06    5    5    2    1
 0.874369911141994    5    5    2    2
 1.904286408674518e-05    5    5    3    1
 -0.01307024206787964    5    5    3    2
 0.8706127290551318    5    5    3    3
 0.01163646340911569    5    5    4    1
 1.177340211972195e-05    5    5    4    2
 -3.400598709658359e-07    5    5    4    3
 0.8686259340007155    5    5    4    4
 1.240208011611349e-06    5    5    5    1
 -0.001045061524763025    5    5    5    2
 0.0008527805735438765    5    5    5    3
 7.150093079805871e-07    5    5    5    4
 0.9437758732184778    5    5    5    5
 -5.964564663795542    1    1  0  0
 8.871496758310228e-06    2    1  0  0
 -5.973493821188647    2    2  0  0
 7.477920746286885e-06    3    1  0  0
 -0.007761588968840595    3    2  0  0
 -5.979558043935032    3    3  0  0
 0.004871273724785613    4    1  0  0
 5.797738394294231e-06    4    2  0  0
 4.806358111396745e-07    4    3  0  0
 -5.968999658003019    4    4  0  0
 -1.052725164273981e-06    5    1  0  0
 0.001202014030971994    5    2  0  0
 -0.00564866153718705    5    3  0  0
 -5.021229414167144e-06    5    4  0  0
 -5.948542742589564    5    5  0  0
 -2270.809948855038  0  0  0  0
