 &FCI NORB=   5,NELEC= 7,MS2=3,
  ORBSYM=1,1,1,1,1,
  ISYM=1,
 &END
 0.9377939334779019    1    1    1    1
 2.401843518285384e-05    1    1    2    1
 0.8572933700900768    1    1    2    2
 -0.0004275150461712278    1    1    3    1
 -0.0006545265385117013    1    1    3    2
 0.8698319444977869    1    1    3    3
 -0.0009097339225092934    1    1    4    1
 0.0008569202665727635    1    1    4    2
 0.0009714810965556642    1    1    4    3
 0.8701027180040849    1    1    4    4
 0.0006819133741290195    1    1    5    1
 0.0001117633407464648    1    1    5    2
 0.005939585816296263    1    1    5    3
 0.001581592559464428    1    1    5    4
 0.8968480109484859    1    1    5    5
 2.401843518289836e-05    2    1    1    1
 0.04132300121022226    2    1    2    1
 -7.718534241383154e-05    2    1    2    2
 0.0003739017010375926    2    1    3    1
 0.0009338588096830334    2    1    3    2
 -0.00576466242159586    2    1    3    3
 -0.0004934053264511805    2    1    4    1
 -0.0003848298413262281    2    1    4    2
 0.01676051686634447    2    1    4    3
 0.004634516543865445    2    1    4    4
 6.279943993003104e-05    2    1    5    1
 -0.000182672543611775    2    1    5    2
 -0.001966397021629575    2    1    5    3
 -0.006097687271525705    2    1    5    4
 0.0008198158852220043    2    1    5    5
 0.857293370090076    2    2    1    1
 -7.718534241366688e-05    2    2    2    1
 0.9422412538171038    2    2    2    2
 -0.002401091975977068    2    2    3    1
 -6.763864216357788e-05    2    2    3    2
 0.8893918505341496    2    2    3    3
 -0.0001782351026486159    2    2    4    1
 -0.0001753842170328372    2    2    4    2
 -0.002405524044411093    2    2    4    3
 0.8924968040894814    2    2    4    4
 0.001078709643362257    2    2    5    1
 0.0001940685201686745    2    2    5    2
 -0.01023119759928939    2    2    5    3
 -0.005846830927705607    2    2    5    4
 0.8616310723593917    2    2    5    5
 -0.0004275150461712008    3    1    1    1
 0.0003739017010376058    3    1    2    1
 -0.002401091975977209    3    1    2    2
 0.03512480625984544    3    1    3    1
 0.002826778988365437    3    1    3    2
 -0.0003618101153629081    3    1    3    3
 -0.0006727440588125853    3    1    4    1
 -0.008401095374255275    3    1    4    2
 0.004222861519072774    3    1    4    3
 0.004603909579977768    3    1    4    4
 -0.004037021950794245    3    1    5    1
 0.001653883829578928    3    1    5    2
 -0.0002573677284451746    3    1    5    3
 0.014436245016016    3    1    5    4
 -0.003557284568625069    3    1    5    5
 -0.0006545265385116371    3    2    1    1
 0.0009338588096830462    3    2    2    1
 -6.76386421636737e-05    3    2    2    2
 0.002826778988365432    3    2    3    1
 0.02645397403419953    3    2    3    2
 -2.376194889156273e-05    3    2    3    3
 -0.008409866382842968    3    2    4    1
 0.0009602656923441425    3    2    4    2
 0.0009250395615579266    3    2    4    3
 0.006131474972069547    3    2    4    4
 0.000135504994683769    3    2    5    1
 0.004050346980829631    3    2    5    2
 0.008396284286607736    3    2    5    3
 0.001063391392022178    3    2    5    4
 -0.005606940393525509    3    2    5    5
 0.8698319444977878    3    3    1    1
 -0.005764662421595788    3    3    2    1
 0.8893918505341503    3    3    2    2
 -0.0003618101153629937    3    3    3    1
 -2.376194889175977e-05    3    3    3    2
 0.9432615625694025    3    3    3    3
 -0.009313585996221013    3    3    4    1
 -0.002128194913779682    3    3    4    2
 -0.0005450858377946418    3    3    4    3
 0.873092562583867    3    3    4    4
 0.001247921045271286    3    3    5    1
 -0.01662410353395881    3    3    5    2
 -0.00219233453940542    3    3    5    3
 0.0005482678303330441    3    3    5    4
 0.8688282892792866    3    3    5    5
 -0.0009097339225096255    4    1    1    1
 -0.0004934053264512333    4    1    2    1
 -0.0001782351026485336    4    1    2    2
 -0.0006727440588126191    4    1    3    1
 -0.008409866382842992    4    1    3    2
 -0.009313585996220609    4    1    3    3
 0.03604759574598206    4    1    4    1
 -0.002345297817268457    4    1    4    2
 -0.002498526770997544    4    1    4    3
 -0.000995754564270128    4    1    4    4
 -0.00148096561594705    4    1    5    1
 0.003531171339101597    4    1    5    2
 -0.01354462842273085    4    1    5    3
 0.0005148681085942239    4    1    5    4
 0.007059781675066146    4    1    5    5
 0.0008569202665726739    4    2    1    1
 -0.0003848298413262178    4    2    2    1
 -0.000175384217032839    4    2    2    2
 -0.008401095374255261    4    2    3    1
 0.0009602656923441383    4    2    3    2
 -0.002128194913779643    4    2    3    3
 -0.002345297817268494    4    2    4    1
 0.02592945719771024    4    2    4    2
 -0.003078889886665368    4    2    4    3
 -0.0002282696910479219    4    2    4    4
 0.002537551244398713    4    2    5    1
 0.00229126554648054    4    2    5    2
 0.004065548329391246    4    2    5    3
 -0.008462337524619447    4    2    5    4
 0.000793484860095797    4    2    5    5
 0.0009714810965555475    4    3    1    1
 0.01676051686634449    4    3    2    1
 -0.00240552404441111    4    3    2    2
 0.004222861519072777    4    3    3    1
 0.0009250395615579295    4    3    3    2
 -0.0005450858377946829    4    3    3    3
 -0.002498526770997539    4    3    4    1
 -0.003078889886665365    4    3    4    2
 0.03598462631584023    4    3    4    3
 -0.000577339470210469    4    3    4    4
 -0.0008790681119679549    4    3    5    1
 -0.005144305262837491    4    3    5    2
 -0.001033183962952867    4    3    5    3
 -0.0003804020684712771    4    3    5    4
 0.0001717295040761488    4    3    5    5
 0.8701027180040851    4    4    1    1
 0.004634516543865249    4    4    2    1
 0.8924968040894812    4    4    2    2
 0.004603909579977936    4    4    3    1
 0.006131474972069776    4    4    3    2
 0.8730925625838667    4    4    3    3
 -0.000995754564269848    4    4    4    1
 -0.0002282696910479589    4    4    4    2
 -0.0005773394702101665    4    4    4    3
 0.9469970190144952    4    4    4    4
 -0.0004703335700774122    4    4    5    1
 0.01708852150746752    4    4    5    2
 -0.001535126245522653    4    4    5    3
 -0.0015484594069279    4    4    5    4
 0.870908924783117    4    4    5    5
 0.0006819133741290324    5    1    1    1
 6.279943993003787e-05    5    1    2    1
 0.001078709643362239    5    1    2    2
 -0.004037021950794247    5    1    3    1
 0.0001355049946837557    5    1    3    2
 0.001247921045271106    5    1    3    3
 -0.001480965615946998    5    1    4    1
 0.002537551244398722    5    1    4    2
 -0.0008790681119679526    5    1    4    3
 -0.0004703335700772797    5    1    4    4
 0.02120950806613963    5    1    5    1
 -0.0006104426011937118    5    1    5    2
 0.001530290120331583    5    1    5    3
 -0.00399668297636928    5    1    5    4
 0.0006862456095017419    5    1    5    5
 0.0001117633407465359    5    2    1    1
 -0.0001826725436118046    5    2    2    1
 0.000194068520168658    5    2    2    2
 0.001653883829578922    5    2    3    1
 0.004050346980829627    5    2    3    2
 -0.01662410353395847    5    2    3    3
 0.00353117133910158    5    2    4    1
 0.002291265546480525    5    2    4    2
 -0.005144305262837481    5    2    4    3
 0.01708852150746742    5    2    4    4
 -0.000610442601193734    5    2    5    1
 0.03983859861712959    5    2    5    2
 0.002735561988034255    5    2    5    3
 -0.0005222718579312682    5    2    5    4
 0.0002461846684387706    5    2    5    5
 0.005939585816296301    5    3    1    1
 -0.001966397021629573    5    3    2    1
 -0.01023119759928954    5    3    2    2
 -0.0002573677284451829    5    3    3    1
 0.008396284286607724    5    3    3    2
 -0.002192334539405393    5    3    3    3
 -0.01354462842273084    5    3    4    1
 0.004065548329391216    5    3    4    2
 -0.001033183962952888    5    3    4    3
 -0.001535126245522859    5    3    4    4
 0.001530290120331577    5    3    5    1
 0.002735561988034237    5    3    5    2
 0.0365682708553216    5    3    5    3
 -0.0002830310422460526    5    3    5    4
 -0.002128190374124321    5    3    5    5
 0.001581592559464613    5    4    1    1
 -0.006097687271525726    5    4    2    1
 -0.005846830927705604    5    4    2    2
 0.01443624501601599    5    4    3    1
 0.001063391392022152    5    4    3    2
 0.0005482678303329221    5    4    3    3
 0.0005148681085942904    5    4    4    1
 -0.008462337524619445    5    4    4    2
 -0.0003804020684712837    5    4    4    3
 -0.001548459406927728    5    4    4    4
 -0.003996682976369291    5    4    5    1
 -0.0005222718579312848    5    4    5    2
 -0.0002830310422460516    5    4    5    3
 0.03652288667107102    5    4    5    4
 -0.001340407025526309    5    4    5    5
 0.8968480109484855    5    5    1    1
 0.0008198158852220174    5    5    2    1
 0.8616310723593921    5    5    2    2
 -0.003557284568625118    5    5    3    1
 -0.005606940393525694    5    5    3    2
 0.8688282892792865    5    5    3    3
 0.007059781675066229    5    5    4    1
 0.0007934848600958551    5    5    4    2
 0.0001717295040761625    5    5    4    3
 0.8709089247831159    5    5    4    4
 0.0006862456095018323    5    5    5    1
 0.0002461846684386863    5    5    5    2
 -0.002128190374124359    5    5    5    3
 -0.001340407025526307    5    5    5    4
 0.940667754875975    5    5    5    5
 -5.979058326065696    1    1  0  0
 0.00122910746776269    2    1  0  0
 -5.997201208054167    2    2  0  0
 0.006794503160347816    3    1  0  0
 0.001563518750103059    3    2  0  0
 -5.967146696588768    3    3  0  0
 0.004081040537328137    4    1  0  0
 -0.001119286318693834    4    2  0  0
 -0.0002365094317498864    4    3  0  0
 -5.981981818056607    4    4  0  0
 -0.004867973271277301    5    1  0  0
 -0.0008698203835916112    5    2  0  0
 0.005038271728206159    5    3  0  0
 -0.002694377656175356    5    4  0  0
 -5.979388826428882    5    5  0  0
 -3339.796675206192  0  0  0  0
