 &FCI NORB=   5,NELEC= 7,MS2=3,
  ORBSYM=1,1,1,1,1,
  ISYM=1,
 &END
 0.9426074649013474    1    1    1    1
 -1.059756506627263e-05    1    1    2    1
 0.8549307278176825    1    1    2    2
 -6.598125316829334e-05    1    1    3    1
 0.0001811511065588369    1    1    3    2
 0.8622961518586316    1    1    3    3
 -1.879038609518564e-05    1    1    4    1
 0.0005046707157851684    1    1    4    2
 0.0001657956193536633    1    1    4    3
 0.8637418416383035    1    1    4    4
 4.91888167025942e-05    1    1    5    1
 -0.0008578880134141265    1    1    5    2
 0.0002165836754496394    1    1    5    3
 0.000956694977554335    1    1    5    4
 0.905055084436561    1    1    5    5
 -1.05975650664354e-05    2    1    1    1
 0.04136449967959945    2    1    2    1
 2.960965686399785e-07    2    1    2    2
 1.068547632092214e-05    2    1    3    1
 -1.657112608975331e-05    2    1    3    2
 0.006051763034354438    2    1    3    3
 4.945418465015795e-05    2    1    4    1
 3.144110595826993e-06    2    1    4    2
 0.01735228343297035    2    1    4    3
 -0.006069552309566028    2    1    4    4
 0.0003567306577165043    2    1    5    1
 1.255437136014472e-06    2    1    5    2
 -0.0005971376804902267    2    1    5    3
 6.545269209233126e-05    2    1    5    4
 1.511539486691708e-06    2    1    5    5
 0.8549307278176824    2    2    1    1
 2.960965685622002e-07    2    2    2    1
 0.930234487756826    2    2    2    2
 -5.061310818861232e-05    2    2    3    1
 0.0002160684559626546    2    2    3    2
 0.8779629044804408    2    2    3    3
 -1.985941331894523e-05    2    2    4    1
 0.0006370445052095102    2    2    4    2
 -4.415045795870418e-05    2    2    4    3
 0.8782068543847588    2    2    4    4
 5.520495474822486e-05    2    2    5    1
 -0.0002332964113448156    2    2    5    2
 -0.0002704927083600198    2    2    5    3
 -0.00106509616528779    2    2    5    4
 0.8566463238679262    2    2    5    5
 -6.598125316845422e-05    3    1    1    1
 1.068547632091231e-05    3    1    2    1
 -5.061310818872503e-05    3    1    2    2
 0.03613827691103256    3    1    3    1
 -0.00299586894635365    3    1    3    2
 -8.197124251353886e-05    3    1    3    3
 1.217575986748525e-05    3    1    4    1
 -0.00883676738262436    3    1    4    2
 0.0001175732952342962    3    1    4    3
 0.0009074441583667829    3    1    4    4
 -0.0001284406427002951    3    1    5    1
 0.0003107392117089577    3    1    5    2
 -4.281293274484337e-05    3    1    5    3
 0.01578574827507271    3    1    5    4
 -0.001120276661127374    3    1    5    5
 0.0001811511065586388    3    2    1    1
 -1.657112608978992e-05    3    2    2    1
 0.0002160684559625687    3    2    2    2
 -0.002995868946353664    3    2    3    1
 0.02456331846061943    3    2    3    2
 0.0002167291887604896    3    2    3    3
 -0.008328617005937816    3    2    4    1
 0.0001057677729047139    3    2    4    2
 0.0002999578554008008    3    2    4    3
 0.0001388641249236747    3    2    4    4
 0.0002996548794149866    3    2    5    1
 0.0001180969634512563    3    2    5    2
 0.008595050483016977    3    2    5    3
 -0.003060938331258767    3    2    5    4
 0.0002507966918824184    3    2    5    5
 0.8622961518586321    3    3    1    1
 0.006051763034354601    3    3    2    1
 0.8779629044804409    3    3    2    2
 -8.197124251354518e-05    3    3    3    1
 0.0002167291887603202    3    3    3    2
 0.9239430149937488    3    3    3    3
 -0.0002457643761066794    3    3    4    1
 2.48005911641405e-05    3    3    4    2
 0.0004384986484788053    3    3    4    3
 0.8552456472100606    3    3    4    4
 0.0001652903945012884    3    3    5    1
 -0.01702900594588823    3    3    5    2
 -4.217801235509262e-05    3    3    5    3
 -0.0001479397548696045    3    3    5    4
 0.8634676016364577    3    3    5    5
 -1.87903860949881e-05    4    1    1    1
 4.945418465017708e-05    4    1    2    1
 -1.985941331862357e-05    4    1    2    2
 1.217575986748175e-05    4    1    3    1
 -0.00832861700593784    4    1    3    2
 -0.0002457643761066489    4    1    3    3
 0.03621885825897617    4    1    4    1
 0.003007586831908553    4    1    4    2
 -0.0005006742529987658    4    1    4    3
 4.984789146945051e-07    4    1    4    4
 -0.000530230405308514    4    1    5    1
 -3.89362064893197e-05    4    1    5    2
 -0.01605866601834951    4    1    5    3
 6.150742159233575e-05    4    1    5    4
 0.0002423947372373748    4    1    5    5
 0.0005046707157850303    4    2    1    1
 3.144110595806368e-06    4    2    2    1
 0.0006370445052093411    4    2    2    2
 -0.008836767382624353    4    2    3    1
 0.0001057677729047056    4    2    3    2
 2.48005911640797e-05    4    2    3    3
 0.003007586831908571    4    2    4    1
 0.02519446849492577    4    2    4    2
 3.389268505333338e-05    4    2    4    3
 0.0006372485657019328    4    2    4    4
 -2.834675624923485e-05    4    2    5    1
 0.0005113517412452057    4    2    5    2
 -0.003061513831210333    4    2    5    3
 -0.00893440097801261    4    2    5    4
 0.001153353295757823    4    2    5    5
 0.0001657956193534891    4    3    1    1
 0.01735228343297034    4    3    2    1
 -4.415045795883518e-05    4    3    2    2
 0.0001175732952343035    4    3    3    1
 0.0002999578554007815    4    3    3    2
 0.0004384986484787054    4    3    3    3
 -0.0005006742529987471    4    3    4    1
 3.389268505333213e-05    4    3    4    2
 0.03582580432083569    4    3    4    3
 -0.0001246009137164204    4    3    4    4
 0.0003066705412989259    4    3    5    1
 0.00602159364966417    4    3    5    2
 2.382428026564748e-05    4    3    5    3
 7.799018613825976e-06    4    3    5    4
 0.0003573106269332635    4    3    5    5
 0.8637418416383036    4    4    1    1
 -0.006069552309565953    4    4    2    1
 0.8782068543847599    4    4    2    2
 0.0009074441583668103    4    4    3    1
 0.0001388641249236732    4    4    3    2
 0.8552456472100608    4    4    3    3
 4.984789144920761e-07    4    4    4    1
 0.0006372485657019557    4    4    4    2
 -0.0001246009137163482    4    4    4    3
 0.9267967756336072    4    4    4    4
 -5.779475053623412e-05    4    4    5    1
 0.01742861558706964    4    4    5    2
 -4.341209902597005e-05    4    4    5    3
 -7.792079903983556e-05    4    4    5    4
 0.8659833515773311    4    4    5    5
 4.918881670250059e-05    5    1    1    1
 0.0003567306577164988    5    1    2    1
 5.520495474821729e-05    5    1    2    2
 -0.0001284406427002737    5    1    3    1
 0.0002996548794150409    5    1    3    2
 0.0001652903945012411    5    1    3    3
 -0.0005302304053085615    5    1    4    1
 -2.834675624920483e-05    5    1    4    2
 0.0003066705412989683    5    1    4    3
 -5.779475053625527e-05    5    1    4    4
 0.01999717202716706    5    1    5    1
 -6.36828437716717e-06    5    1    5    2
 0.0005132531252884298    5    1    5    3
 -0.0001270394691199567    5    1    5    4
 4.8988029356295e-05    5    1    5    5
 -0.0008578880134139509    5    2    1    1
 1.255437136022365e-06    5    2    2    1
 -0.0002332964113448677    5    2    2    2
 0.0003107392117089503    5    2    3    1
 0.0001180969634512035    5    2    3    2
 -0.01702900594588798    5    2    3    3
 -3.893620648931943e-05    5    2    4    1
 0.0005113517412451856    5    2    4    2
 0.006021593649664153    5    2    4    3
 0.0174286155870698    5    2    4    4
 -6.368284377150752e-06    5    2    5    1
 0.0415281232187253    5    2    5    2
 -2.149996470950006e-05    5    2    5    3
 -0.0002824380284785615    5    2    5    4
 -0.0001404672290525335    5    2    5    5
 0.0002165836754497494    5    3    1    1
 -0.0005971376804902157    5    3    2    1
 -0.000270492708360052    5    3    2    2
 -4.281293274484436e-05    5    3    3    1
 0.008595050483017013    5    3    3    2
 -4.217801235510501e-05    5    3    3    3
 -0.01605866601834951    5    3    4    1
 -0.00306151383121033    5    3    4    2
 2.382428026563863e-05    5    3    4    3
 -4.34120990258973e-05    5    3    4    4
 0.0005132531252884365    5    3    5    1
 -2.149996470952339e-05    5    3    5    2
 0.03616593218115521    5    3    5    3
 -9.0647718164041e-05    5    3    5    4
 -3.883774225192607e-05    5    3    5    5
 0.0009566949775544787    5    4    1    1
 6.545269209234746e-05    5    4    2    1
 -0.00106509616528767    5    4    2    2
 0.01578574827507271    5    4    3    1
 -0.00306093833125877    5    4    3    2
 -0.0001479397548695185    5    4    3    3
 6.150742159231979e-05    5    4    4    1
 -0.008934400978012614    5    4    4    2
 7.79901861380723e-06    5    4    4    3
 -7.792079903973221e-05    5    4    4    4
 -0.0001270394691199291    5    4    5    1
 -0.0002824380284785621    5    4    5    2
 -9.0647718164044e-05    5    4    5    3
 0.0356696660251762    5    4    5    4
 -8.751795235099481e-05    5    4    5    5
 0.9050550844365617    5    5    1    1
 1.511539486597532e-06    5    5    2    1
 0.8566463238679257    5    5    2    2
 -0.001120276661127461    5    5    3    1
 0.0002507966918821861    5    5    3    2
 0.863467601636458    5    5    3    3
 0.0002423947372373023    5    5    4    1
 0.001153353295757842    5    5    4    2
 0.0003573106269332881    5    5    4    3
 0.8659833515773308    5    5    4    4
 4.89880293562538e-05    5    5    5    1
 -0.0001404672290524296    5    5    5    2
 -3.883774225193274e-05    5    5    5    3
 -8.751795235098689e-05    5    5    5    4
 0.9475124214753631    5    5    5    5
 -5.516030036167478    1    1  0  0
 -5.797197319416489e-05    2    1  0  0
 -5.482133846266732    2    2  0  0
 0.0004976251847451998    3    1  0  0
 -0.001214121436202475    3    2  0  0
 -5.432318230924036    3    3  0  0
 8.395520562693076e-05    4    1  0  0
 -0.003498728119767    4    2  0  0
 -0.002160785244971191    4    3  0  0
 -5.447513537733111    4    4  0  0
 -0.000315152273445864    5    1  0  0
 0.002191221274085877    5    2  0  0
 0.0001382038967479264    5    3  0  0
 0.0004973514831490706    5    4  0  0
 -5.530158464577477    5    5  0  0
 -4398.043038145137  0  0  0  0
