 &FCI NORB=   5,NELEC= 7,MS2=3,
  ORBSYM=1,1,1,1,1,
  ISYM=1,
 &END
 0.9370492819981433    1    1    1    1
 4.779961506608672e-05    1    1    2    1
 0.8559971273508822    1    1    2    2
 -0.001336398679741543    1    1    3    1
 0.000269942372762972    1    1    3    2
 0.8701969120008429    1    1    3    3
 0.0005709324568316504    1    1    4    1
 8.034598908413219e-05    1    1    4    2
 0.005891459076161413    1    1    4    3
 0.8878002486894822    1    1    4    4
 0.0003200344256281548    1    1    5    1
 -0.0002883111163810673    1    1    5    2
 -0.003163536803095959    1    1    5    3
 -0.01125002570285212    1    1    5    4
 0.8758867825568851    1    1    5    5
 4.779961506610618e-05    2    1    1    1
 0.0412947729906474    2    1    2    1
 1.331832615039862e-05    2    1    2    2
 -2.284754208491884e-05    2    1    3    1
 4.020805392239258e-05    2    1    3    2
 -0.004460628102282259    2    1    3    3
 0.0001557832779072353    2    1    4    1
 -6.428557800072436e-05    2    1    4    2
 -0.008557453475846549    2    1    4    3
 0.005679251640179287    2    1    4    4
 -8.804630461030725e-06    2    1    5    1
 -8.08146279975661e-05    2    1    5    2
 -0.01529157677523482    2    1    5    3
 0.003911959582645922    2    1    5    4
 -0.001205462019855218    2    1    5    5
 0.8559971273508822    2    2    1    1
 1.331832615049865e-05    2    2    2    1
 0.9404161863196757    2    2    2    2
 -0.001401297531499746    2    2    3    1
 0.0001519654507265624    2    2    3    2
 0.8891613461304226    2    2    3    3
 0.0007178697158054075    2    2    4    1
 0.000107471413746904    2    2    4    2
 -0.007404316327411428    2    2    4    3
 0.8695818751672937    2    2    4    4
 0.000493274805662678    2    2    5    1
 -0.0001078417526239992    2    2    5    2
 0.005059294214202034    2    2    5    3
 0.01674814387320124    2    2    5    4
 0.8805263631769799    2    2    5    5
 -0.001336398679741726    3    1    1    1
 -2.284754208493559e-05    3    1    2    1
 -0.001401297531499609    3    1    2    2
 0.03514134254349496    3    1    3    1
 0.002243744131521606    3    1    3    2
 -0.001334252741870739    3    1    3    3
 -0.003300009303575002    3    1    4    1
 0.004190145628629632    3    1    4    2
 0.002280687250880829    3    1    4    3
 0.01283391030575685    3    1    4    4
 0.002046138603163061    3    1    5    1
 0.007779319097322296    3    1    5    2
 0.00328995692098057    3    1    5    3
 0.005801645900868604    3    1    5    4
 -0.01498143654395393    3    1    5    5
 0.0002699423727634073    3    2    1    1
 4.020805392241171e-05    3    2    2    1
 0.0001519654507263359    3    2    2    2
 0.00224374413152157    3    2    3    1
 0.02639895426375267    3    2    3    2
 0.0001216922400802374    3    2    3    3
 0.004372403002107867    3    2    4    1
 0.003366518898654444    3    2    4    2
 -0.007639247550011103    3    2    4    3
 0.004284487964690361    3    2    4    4
 0.007580667441757916    3    2    5    1
 -0.002036305521025173    3    2    5    2
 0.00434913911719617    3    2    5    3
 -0.003279276262450062    3    2    5    4
 -0.004183602020669543    3    2    5    5
 0.8701969120008429    3    3    1    1
 -0.004460628102282183    3    3    2    1
 0.8891613461304229    3    3    2    2
 -0.001334252741870783    3    3    3    1
 0.0001216922400803634    3    3    3    2
 0.9443283232936999    3    3    3    3
 -0.004121340786681086    3    3    4    1
 0.01531570016588393    3    3    4    2
 -0.0008680455797420631    3    3    4    3
 0.8705676753040253    3    3    4    4
 -0.006279527270772102    3    3    5    1
 -0.008691996760833348    3    3    5    2
 0.001124942126425169    3    3    5    3
 0.003027576163986541    3    3    5    4
 0.8696791408111069    3    3    5    5
 0.0005709324568316231    4    1    1    1
 0.0001557832779072279    4    1    2    1
 0.0007178697158052082    4    1    2    2
 -0.003300009303575051    4    1    3    1
 0.00437240300210792    4    1    3    2
 -0.004121340786681201    4    1    3    3
 0.02577957015934988    4    1    4    1
 -0.002873602847948731    4    1    4    2
 -0.007119400624807679    4    1    4    3
 0.0006301531711790909    4    1    4    4
 0.007104547972391899    4    1    5    1
 -0.001860232301111327    4    1    5    2
 0.003648829120297053    4    1    5    3
 -0.00317439881144606    4    1    5    4
 0.004922090175375705    4    1    5    5
 8.034598908414695e-05    4    2    1    1
 -6.428557800072775e-05    4    2    2    1
 0.0001074714137469596    4    2    2    2
 0.00419014562862963    4    2    3    1
 0.003366518898654444    4    2    3    2
 0.01531570016588404    4    2    3    3
 -0.002873602847948737    4    2    4    1
 0.03567878144523282    4    2    4    2
 -0.00211979318532149    4    2    4    3
 1.345352855934037e-05    4    2    4    4
 -0.002034321685943202    4    2    5    1
 -0.006834273911741127    4    2    5    2
 -0.00152370256582391    4    2    5    3
 -0.004315096814570199    4    2    5    4
 -0.01512453072520803    4    2    5    5
 0.005891459076161353    4    3    1    1
 -0.008557453475846554    4    3    2    1
 -0.007404316327411343    4    3    2    2
 0.002280687250880865    4    3    3    1
 -0.007639247550011115    4    3    3    2
 -0.0008680455797421733    4    3    3    3
 -0.007119400624807667    4    3    4    1
 -0.00211979318532149    4    3    4    2
 0.0362238953112161    4    3    4    3
 -0.0006495243527296883    4    3    4    4
 -0.00948377539015129    4    3    5    1
 0.004861193757380543    4    3    5    2
 0.0001609669101535349    4    3    5    3
 3.351251794806572e-05    4    3    5    4
 -0.0004004018218389683    4    3    5    5
 0.8878002486894822    4    4    1    1
 0.005679251640179399    4    4    2    1
 0.8695818751672937    4    4    2    2
 0.01283391030575674    4    4    3    1
 0.00428448796469044    4    4    3    2
 0.8705676753040239    4    4    3    3
 0.0006301531711790938    4    4    4    1
 1.345352855934366e-05    4    4    4    2
 -0.0006495243527295527    4    4    4    3
 0.9418642380719585    4    4    4    4
 0.006713105590602752    4    4    5    1
 0.008785437508099677    4    4    5    2
 0.0007714616595110717    4    4    5    3
 0.003172714994255145    4    4    5    4
 0.8687166556730015    4    4    5    5
 0.0003200344256282023    5    1    1    1
 -8.804630461038369e-06    5    1    2    1
 0.0004932748056628098    5    1    2    2
 0.002046138603163102    5    1    3    1
 0.007580667441757857    5    1    3    2
 -0.006279527270772093    5    1    3    3
 0.00710454797239194    5    1    4    1
 -0.002034321685943197    5    1    4    2
 -0.009483775390151331    5    1    4    3
 0.006713105590602978    5    1    4    4
 0.03128797576057595    5    1    5    1
 0.0006038356247927095    5    1    5    2
 0.006908633432719336    5    1    5    3
 -0.002197592802596374    5    1    5    4
 0.0003238862132393444    5    1    5    5
 -0.0002883111163810141    5    2    1    1
 -8.081462799755193e-05    5    2    2    1
 -0.0001078417526240115    5    2    2    2
 0.007779319097322299    5    2    3    1
 -0.002036305521025152    5    2    3    2
 -0.008691996760833473    5    2    3    3
 -0.001860232301111308    5    2    4    1
 -0.006834273911741133    5    2    4    2
 0.004861193757380528    5    2    4    3
 0.00878543750809962    5    2    4    4
 0.0006038356247927179    5    2    5    1
 0.02984957004318882    5    2    5    2
 0.002135253804411222    5    2    5    3
 0.007534314322652544    5    2    5    4
 -9.69788655342133e-05    5    2    5    5
 -0.003163536803095928    5    3    1    1
 -0.01529157677523483    5    3    2    1
 0.005059294214202113    5    3    2    2
 0.003289956920980565    5    3    3    1
 0.004349139117196101    5    3    3    2
 0.001124942126425426    5    3    3    3
 0.003648829120297013    5    3    4    1
 -0.001523702565823903    5    3    4    2
 0.0001609669101535381    5    3    4    3
 0.0007714616595112289    5    3    4    4
 0.00690863343271935    5    3    5    1
 0.002135253804411215    5    3    5    2
 0.03636845835968515    5    3    5    3
 -0.0001426633386248587    5    3    5    4
 0.001036950028955628    5    3    5    5
 -0.01125002570285203    5    4    1    1
 0.00391195958264592    5    4    2    1
 0.01674814387320104    5    4    2    2
 0.005801645900868579    5    4    3    1
 -0.00327927626245    5    4    3    2
 0.003027576163986337    5    4    3    3
 -0.003174398811446039    5    4    4    1
 -0.004315096814570186    5    4    4    2
 3.351251794803392e-05    5    4    4    3
 0.003172714994255225    5    4    4    4
 -0.002197592802596416    5    4    5    1
 0.007534314322652553    5    4    5    2
 -0.0001426633386248404    5    4    5    3
 0.03633278000773084    5    4    5    4
 0.003204381577541524    5    4    5    5
 0.8758867825568848    5    5    1    1
 -0.001205462019855237    5    5    2    1
 0.8805263631769799    5    5    2    2
 -0.01498143654395388    5    5    3    1
 -0.004183602020669449    5    5    3    2
 0.869679140811107    5    5    3    3
 0.004922090175375533    5    5    4    1
 -0.01512453072520807    5    5    4    2
 -0.00040040182183899    5    5    4    3
 0.8687166556730012    5    5    4    4
 0.0003238862132391624    5    5    5    1
 -9.697886553418117e-05    5    5    5    2
 0.001036950028955553    5    5    5    3
 0.003204381577541531    5    5    5    4
 0.9407302228808302    5    5    5    5
 -5.867431693883672    1    1  0  0
 2.10218062178354e-06    2    1  0  0
 -5.883166096421133    2    2  0  0
 0.007655611365014434    3    1  0  0
 -0.001050188165003891    3    2  0  0
 -5.858888417959385    3    3  0  0
 -0.003607663576356828    4    1  0  0
 -0.0002800754768634947    4    2  0  0
 -0.002833372647987144    4    3  0  0
 -5.870107297093051    4    4  0  0
 -0.002310932726577088    5    1  0  0
 0.0006865124684722987    5    2  0  0
 -0.001627739266599573    5    3  0  0
 -0.006873991063889636    5    4  0  0
 -5.857373812295124    5    5  0  0
 -2915.310750203902  0  0  0  0
