 &FCI NORB=  10,NELEC= 7,MS2=3,
  ORBSYM=1,1,1,1,1,1,1,1,1,1,
  ISYM=1,
 &END
 0.9455681495558195    1    1    1    1
 8.985541893908954e-05    1    1    2    1
 0.8605766531895288    1    1    2    2
 -0.000213756167538898    1    1    3    1
 8.448041380702558e-05    1    1    3    2
 0.8644623569353744    1    1    3    3
 3.047779165446294e-05    1    1    4    1
 -0.0007517277512706092    1    1    4    2
 0.002457118853281736    1    1    4    3
 0.9010077562465016    1    1    4    4
 0.0001441915490862421    1    1    5    1
 -0.00145333361154593    1    1    5    2
 -0.001489902459221372    1    1    5    3
 -0.001087075688449695    1    1    5    4
 0.9003258943380184    1    1    5    5
 0.1180118213103994    1    1    6    1
 0.04471600224456524    1    1    6    2
 0.00834554867057025    1    1    6    3
 -0.2103972471226545    1    1    6    4
 0.01871726143647826    1    1    6    5
 0.7571651710400902    1    1    6    6
 -0.2419004062713902    1    1    7    1
 0.01094475752698012    1    1    7    2
 -0.005844744772839576    1    1    7    3
 -0.1053856590717432    1    1    7    4
 0.003986155874787812    1    1    7    5
 -0.003482396638054571    1    1    7    6
 0.763535378067919    1    1    7    7
 -0.01249767287835496    1    1    8    1
 0.2091703539174959    1    1    8    2
 0.004444760587720632    1    1    8    3
 0.0483482290560065    1    1    8    4
 0.1057058537089943    1    1    8    5
 -0.006989348100869505    1    1    8    6
 -0.0009829205532723892    1    1    8    7
 0.722078962558259    1    1    8    8
 0.001522725147560745    1    1    9    1
 -0.1049004330407844    1    1    9    2
 -0.03627723770049206    1    1    9    3
 -0.004788756728834946    1    1    9    4
 0.212908586754449    1    1    9    5
 0.004799372584925952    1    1    9    6
 0.0008240340919083022    1    1    9    7
 0.01736507184848631    1    1    9    8
 0.7491316020400187    1    1    9    9
 0.009160562122435649    1    1   10    1
 0.02166431687315849    1    1   10    2
 -0.2344565612353024    1    1   10    3
 -0.003093272161765607    1    1   10    4
 -0.02949186210235398    1    1   10    5
 0.003369444830755963    1    1   10    6
 -0.00135353544634235    1    1   10    7
 -0.002778856049700663    1    1   10    8
 -0.004312660320635875    1    1   10    9
 0.7110089519832775    1    1   10   10
 8.985541893908607e-05    2    1    1    1
 0.04145348557728615    2    1    2    1
 0.0001147148777862921    2    1    2    2
 9.629340436130718e-06    2    1    3    1
 -0.0001378214639963707    2    1    3    2
 -0.001386757420932115    2    1    3    3
 0.0001557929635554601    2    1    4    1
 -8.926725037253329e-05    2    1    4    2
 -0.0005807524001071548    2    1    4    3
 0.001922410961630222    2    1    4    4
 7.063713222252448e-05    2    1    5    1
 -0.0001061160898323907    2    1    5    2
 0.0004454131514826638    2    1    5    3
 0.01877879732427661    2    1    5    4
 -0.0002959689036146204    2    1    5    5
 0.002454669760187013    2    1    6    1
 0.006203852117947791    2    1    6    2
 0.0001282746051842943    2    1    6    3
 -4.005927560518771e-05    2    1    6    4
 -0.00479470647751504    2    1    6    5
 0.003856893902086946    2    1    6    6
 0.0004963517493500669    2    1    7    1
 -0.01268659021491282    2    1    7    2
 6.959300435005478e-05    2    1    7    3
 -0.00021348313098887    2    1    7    4
 -0.002426948834637349    2    1    7    5
 -0.004202443528167533    2    1    7    6
 -0.002263608533429256    2    1    7    7
 0.01140450382441294    2    1    8    1
 -0.0007464349989842092    2    1    8    2
 -5.002504170825418e-06    2    1    8    3
 0.002451230843942866    2    1    8    4
 0.001097625230738968    2    1    8    5
 0.005454118043972919    2    1    8    6
 -0.02525137867758111    2    1    8    7
 8.379881945026626e-05    2    1    8    8
 -0.005665583319495692    2    1    9    1
 0.0001024894630757774    2    1    9    2
 0.0001820717914188674    2    1    9    3
 0.004780466761865493    2    1    9    4
 -0.0002123312632668302    2    1    9    5
 -0.01625372560156544    2    1    9    6
 0.005781010758046412    2    1    9    7
 0.002855207074077943    2    1    9    8
 -0.0007480423379045025    2    1    9    9
 0.001181619232019984    2    1   10    1
 0.0003157700556103302    2    1   10    2
 0.0004333918121991048    2    1   10    3
 -0.0004957688666769054    2    1   10    4
 -0.0001546532634695632    2    1   10    5
 0.002486771190815449    2    1   10    6
 -0.00170050848875707    2    1   10    7
 0.0003711718166381695    2    1   10    8
 -0.001041911869926541    2    1   10    9
 -0.000644866083404952    2    1   10   10
 0.8605766531895284    2    2    1    1
 0.0001147148777862304    2    2    2    1
 0.9416595581041208    2    2    2    2
 -0.0003068649861246059    2    2    3    1
 7.249442679543786e-05    2    2    3    2
 0.9054100861629535    2    2    3    3
 0.0002256959044679617    2    2    4    1
 -0.0004162744450635506    2    2    4    2
 0.0001507104090612413    2    2    4    3
 0.8774711770516237    2    2    4    4
 0.0003264406277018627    2    2    5    1
 -0.001324966290249231    2    2    5    2
 0.001676407150146192    2    2    5    3
 0.001276862165872782    2    2    5    4
 0.8767097856401375    2    2    5    5
 0.104888763030711    2    2    6    1
 0.05008915472584174    2    2    6    2
 0.009566190648388938    2    2    6    3
 -0.2049308596246319    2    2    6    4
 0.0178023621494823    2    2    6    5
 0.734830933618017    2    2    6    6
 -0.2152556276273598    2    2    7    1
 0.01236885366069939    2    2    7    2
 -0.00556480700543249    2    2    7    3
 -0.1028006559554941    2    2    7    4
 0.003363552031341157    2    2    7    5
 0.01115971235688005    2    2    7    6
 0.7167493287712876    2    2    7    7
 -0.01127479284290263    2    2    8    1
 0.2349130930311024    2    2    8    2
 0.00500758083573194    2    2    8    3
 0.04749890617979192    2    2    8    4
 0.1031107048891872    2    2    8    5
 0.004754452224292842    2    2    8    6
 -0.0002743203394063392    2    2    8    7
 0.759253676354225    2    2    8    8
 0.001519830708922453    2    2    9    1
 -0.117648577529655    2    2    9    2
 -0.03771899201639442    2    2    9    3
 -0.004032750108954955    2    2    9    4
 0.2070940606024693    2    2    9    5
 -0.002896492210199924    2    2    9    6
 -0.0008671351885851463    2    2    9    7
 -0.009761016751705202    2    2    9    8
 0.7455790986416724    2    2    9    9
 0.008046658782909992    2    2   10    1
 0.02427527351176444    2    2   10    2
 -0.2497433620163689    2    2   10    3
 -0.002288160855476576    2    2   10    4
 -0.02980165181379034    2    2   10    5
 0.001005171346402743    2    2   10    6
 0.0007040163125627827    2    2   10    7
 0.001301086756940507    2    2   10    8
 -0.002347675192152482    2    2   10    9
 0.7383601538550247    2    2   10   10
 -0.0002137561675388729    3    1    1    1
 9.629340436131583e-06    3    1    2    1
 -0.0003068649861245904    3    1    2    2
 0.04158908315284095    3    1    3    1
 0.0006854925074662228    3    1    3    2
 8.097744159872082e-06    3    1    3    3
 -0.0004376093343261123    3    1    4    1
 0.0001311406575089903    3    1    4    2
 0.0003353996516861745    3    1    4    3
 0.01868100015791653    3    1    4    4
 0.000694739745006564    3    1    5    1
 -8.155512936948636e-05    3    1    5    2
 0.0004054253229490204    3    1    5    3
 -0.00110630216544648    3    1    5    4
 -0.01901725880413007    3    1    5    5
 0.0006380507648949231    3    1    6    1
 -4.75718331638941e-05    3    1    6    2
 0.006301338287451949    3    1    6    3
 -0.004884734716370751    3    1    6    4
 -3.967999989286455e-05    3    1    6    5
 0.01157613164571403    3    1    6    6
 -0.000280577262674501    3    1    7    1
 -3.570844483830367e-05    3    1    7    2
 -0.0131028086152228    3    1    7    3
 -0.002322300382630108    3    1    7    4
 -0.0001467200905520031    3    1    7    5
 0.003923264691552716    3    1    7    6
 0.003352094409291639    3    1    7    7
 0.0002790578310744133    3    1    8    1
 2.55554547572215e-05    3    1    8    2
 -0.0003765313232242665    3    1    8    3
 0.001038893826069081    3    1    8    4
 -0.002535352957543112    3    1    8    5
 -0.002425552669297024    3    1    8    6
 -0.001873130067667407    3    1    8    7
 -0.002646767036542731    3    1    8    8
 -0.00178831532553513    3    1    9    1
 -7.899975097007353e-05    3    1    9    2
 0.0001246570937620855    3    1    9    3
 -0.0004325080908675061    3    1    9    4
 -0.004856544090609444    3    1    9    5
 -0.001715033396962162    3    1    9    6
 0.003701188924124047    3    1    9    7
 -0.00544795123603655    3    1    9    8
 -0.01103006091871944    3    1    9    9
 -0.01258218387193538    3    1   10    1
 -0.0002355227591999962    3    1   10    2
 0.001100515856222076    3    1   10    3
 -0.0001257935674698197    3    1   10    4
 0.0005290943348553865    3    1   10    5
 -0.01209772948989364    3    1   10    6
 0.02548083063544634    3    1   10    7
 0.001542548645613802    3    1   10    8
 0.001360748439381248    3    1   10    9
 -0.001484678693070005    3    1   10   10
 8.448041380699691e-05    3    2    1    1
 -0.0001378214639963438    3    2    2    1
 7.249442679579128e-05    3    2    2    2
 0.0006854925074662456    3    2    3    1
 0.02022205499335639    3    2    3    2
 8.987969061460969e-05    3    2    3    3
 0.0004429452094499588    3    2    4    1
 0.0007195646663574665    3    2    4    2
 -0.0008703489350171055    3    2    4    3
 0.0007303324531149    3    2    4    4
 -0.0003624142784306398    3    2    5    1
 -0.0008918086650332132    3    2    5    2
 -0.0006988825615030883    3    2    5    3
 -0.0001160761947762424    3    2    5    4
 -0.0005742678991648157    3    2    5    5
 -0.0001221353728533897    3    2    6    1
 5.552846791971278e-05    3    2    6    2
 0.001656042070177879    3    2    6    3
 -8.742462063689541e-05    3    2    6    4
 -0.0001241875278430905    3    2    6    5
 0.0002099363919573789    3    2    6    6
 -9.16015803952835e-05    3    2    7    1
 -0.0002550400570686677    3    2    7    2
 0.000185150168623222    3    2    7    3
 -0.0002307801427240074    3    2    7    4
 0.000148059450554908    3    2    7    5
 0.0002524452696405322    3    2    7    6
 0.0003511271940735263    3    2    7    7
 -7.636843941868134e-06    3    2    8    1
 7.820512412277606e-05    3    2    8    2
 0.006106509658701838    3    2    8    3
 0.0002848536735684687    3    2    8    4
 -0.0003806202232838859    3    2    8    5
 -0.0001178634185109259    3    2    8    6
 -0.0002824417479869556    3    2    8    7
 0.0001023739832497639    3    2    8    8
 -0.0001710459711927284    3    2    9    1
 -0.001257526611989647    3    2    9    2
 -0.00329730493400978    3    2    9    3
 -0.0001147665771180709    3    2    9    4
 2.875446354324333e-06    3    2    9    5
 -0.0005026922055387911    3    2    9    6
 0.0002985117221705332    3    2    9    7
 -0.002388673515458297    3    2    9    8
 0.002064086134676801    3    2    9    9
 -0.0002125611503192692    3    2   10    1
 -0.006693812151153237    3    2   10    2
 0.0006778893043143668    3    2   10    3
 0.0003292457409264365    3    2   10    4
 0.0002332339750534474    3    2   10    5
 -0.003089871486993178    3    2   10    6
 -0.000496446199120566    3    2   10    7
 -0.01068799006849624    3    2   10    8
 0.005786108231643315    3    2   10    9
 -0.002374035878115405    3    2   10   10
 0.8644623569353743    3    3    1    1
 -0.001386757420932138    3    3    2    1
 0.9054100861629539    3    3    2    2
 8.097744159905093e-06    3    3    3    1
 8.98796906146025e-05    3    3    3    2
 0.9501828671418721    3    3    3    3
 -0.0006808038364795128    3    3    4    1
 0.001306442558774565    3    3    4    2
 0.00158980907934824    3    3    4    3
 0.8814624735793579    3    3    4    4
 -0.0006764381715785647    3    3    5    1
 2.346561840224574e-05    3    3    5    2
 -8.936438235925164e-05    3    3    5    3
 0.0001039257581664834    3    3    5    4
 0.8805123840344068    3    3    5    5
 0.1062023020031464    3    3    6    1
 0.04741688323729104    3    3    6    2
 0.009584608343788039    3    3    6    3
 -0.2069308978652987    3    3    6    4
 0.01817083516559068    3    3    6    5
 0.7371460707531582    3    3    6    6
 -0.2175203832128163    3    3    7    1
 0.01203445513050564    3    3    7    2
 -0.005724078443236658    3    3    7    3
 -0.103454316211686    3    3    7    4
 0.003929471663198794    3    3    7    5
 0.01087888524900924    3    3    7    6
 0.7194252578454398    3    3    7    7
 -0.01194841935407404    3    3    8    1
 0.2256670250293527    3    3    8    2
 0.00518705082164117    3    3    8    3
 0.0484295472538589    3    3    8    4
 0.104843603787808    3    3    8    5
 -0.0005705503758798508    3    3    8    6
 -0.0003790042528509771    3    3    8    7
 0.7434295672664273    3    3    8    8
 0.001457652825767093    3    3    9    1
 -0.1125369628860176    3    3    9    2
 -0.04075654940731425    3    3    9    3
 -0.004687340741853875    3    3    9    4
 0.2096080454978184    3    3    9    5
 0.0004408445171689661    3    3    9    6
 0.0005745705699717324    3    3    9    7
 0.0001611665111608921    3    3    9    8
 0.7433886609110412    3    3    9    9
 0.008652488718439127    3    3   10    1
 0.02324488793473053    3    3   10    2
 -0.2663459098314818    3    3   10    3
 -0.002812693280324135    3    3   10    4
 -0.02948722032676668    3    3   10    5
 0.0001761900151776222    3    3   10    6
 0.002094582175187196    3    3   10    7
 -0.0009540607593748393    3    3   10    8
 0.003808644518709603    3    3   10    9
 0.7660657773063599    3    3   10   10
 3.047779165443683e-05    4    1    1    1
 0.0001557929635554539    4    1    2    1
 0.0002256959044680138    4    1    2    2
 -0.0004376093343261117    4    1    3    1
 0.0004429452094500092    4    1    3    2
 -0.0006808038364794149    4    1    3    3
 0.02567050589076543    4    1    4    1
 -0.0009164448904887671    4    1    4    2
 -0.009475007527693036    4    1    4    3
 3.959109653317928e-05    4    1    4    4
 0.0006019469950061301    4    1    5    1
 -0.009421535704645505    4    1    5    2
 0.001061017964907584    4    1    5    3
 -0.0003039063051787152    4    1    5    4
 0.0004986936637393764    4    1    5    5
 -0.00728451794823084    4    1    6    1
 5.181946819513902e-05    4    1    6    2
 0.00259035561232671    4    1    6    3
 0.004252542124898628    4    1    6    4
 -0.0004328326418075913    4    1    6    5
 -0.01183865379460757    4    1    6    6
 -0.003615395252480306    4    1    7    1
 2.095227364167174e-05    4    1    7    2
 0.001418841385073814    4    1    7    3
 -0.009029853063579306    4    1    7    4
 -0.0003186345217531883    4    1    7    5
 0.009600964608916532    4    1    7    6
 0.01261030833284754    4    1    7    7
 0.001805386637431673    4    1    8    1
 -0.001311615450907576    4    1    8    2
 -0.0003019495098961348    4    1    8    3
 -0.0008905369217412561    4    1    8    4
 -0.003192936897851743    4    1    8    5
 0.001887671720423549    4    1    8    6
 -0.002714467495486652    4    1    8    7
 -0.005484246700827463    4    1    8    8
 1.780261560288725e-05    4    1    9    1
 -0.002664142232864515    4    1    9    2
 0.0003101576753212753    4    1    9    3
 0.0006494430141966276    4    1    9    4
 0.001658830522609045    4    1    9    5
 -0.001915543878740535    4    1    9    6
 -0.0008323734939040198    4    1    9    7
 -0.003547214464206312    4    1    9    8
 0.005218839706099369    4    1    9    9
 9.996436233768064e-06    4    1   10    1
 0.0002227526557456513    4    1   10    2
 0.0002268201603011953    4    1   10    3
 0.003841783229989352    4    1   10    4
 -0.0007213998845093293    4    1   10    5
 -0.006192050137797196    4    1   10    6
 -0.003232128180618659    4    1   10    7
 0.001331921244245217    4    1   10    8
 -0.001647657026085039    4    1   10    9
 -0.0003702340206316764    4    1   10   10
 -0.0007517277512705568    4    2    1    1
 -8.926725037254339e-05    4    2    2    1
 -0.0004162744450634323    4    2    2    2
 0.0001311406575089877    4    2    3    1
 0.0007195646663574871    4    2    3    2
 0.001306442558774548    4    2    3    3
 -0.0009164448904887812    4    2    4    1
 0.03636302771156728    4    2    4    2
 -0.0003472511002093572    4    2    4    3
 -0.0004320538800861109    4    2    4    4
 -0.009418305013074326    4    2    5    1
 -0.0005644481181527779    4    2    5    2
 -0.01629538997421979    4    2    5    3
 0.00042785049463828    4    2    5    4
 -0.001755453510248331    4    2    5    5
 -0.0001006544167947949    4    2    6    1
 -0.009844408703463835    4    2    6    2
 -0.000195383789266138    4    2    6    3
 0.002507384454948962    4    2    6    4
 -0.001967323310490694    4    2    6    5
 -0.008324953977574507    4    2    6    6
 0.0002841103919695348    4    2    7    1
 -0.004921360333175585    4    2    7    2
 -7.93189325814278e-05    4    2    7    3
 0.0009694407512239233    4    2    7    4
 0.003215365158373124    4    2    7    5
 -0.002889292497656754    4    2    7    6
 -0.001777137808541309    4    2    7    7
 -0.001461572730877512    4    2    8    1
 0.002083601711564837    4    2    8    2
 -0.001937424012188352    4    2    8    3
 0.01210988805191435    4    2    8    4
 -0.0003272759963110128    4    2    8    5
 -0.01918505009745044    4    2    8    6
 -0.006499121120113197    4    2    8    7
 0.007858527986301812    4    2    8    8
 -0.002798877934869982    4    2    9    1
 -0.0003738911311139114    4    2    9    2
 -0.004542897393386459    4    2    9    3
 -0.005872619987878503    4    2    9    4
 0.0005411424515306468    4    2    9    5
 0.006309439007428108    4    2    9    6
 0.009408653082762843    4    2    9    7
 -0.002432517851783556    4    2    9    8
 0.002536195292285146    4    2    9    9
 0.0003082381890804304    4    2   10    1
 -0.0003016909439594087    4    2   10    2
 0.0001453953823059108    4    2   10    3
 0.001324190925068234    4    2   10    4
 0.005602654756715895    4    2   10    5
 -0.001055527813440131    4    2   10    6
 -0.001518386067276835    4    2   10    7
 0.004656703794958522    4    2   10    8
 0.01004661727036256    4    2   10    9
 -0.002083802907468884    4    2   10   10
 0.002457118853281793    4    3    1    1
 -0.0005807524001071519    4    3    2    1
 0.0001507104090611199    4    3    2    2
 0.0003353996516861816    4    3    3    1
 -0.0008703489350171265    4    3    3    2
 0.00158980907934809    4    3    3    3
 -0.009475007527693025    4    3    4    1
 -0.0003472511002093435    4    3    4    2
 0.03677839547679686    4    3    4    3
 0.001577509015993798    4    3    4    4
 5.278186205714708e-05    4    3    5    1
 0.01624779266177589    4    3    5    2
 -2.197551189536372e-05    4    3    5    3
 0.0001726296743606392    4    3    5    4
 0.001705120087468132    4    3    5    5
 0.003223474181230935    4    3    6    1
 0.0003910275296886033    4    3    6    2
 -0.009756866185666005    4    3    6    3
 -0.001712307006919326    4    3    6    4
 0.001097734562634518    4    3    6    5
 0.004565717045004771    4    3    6    6
 0.0004235718141580241    4    3    7    1
 0.0003154020822864164    4    3    7    2
 -0.005064199965151736    4    3    7    3
 0.002499902291612379    4    3    7    4
 0.0002225538497534032    4    3    7    5
 -0.003511270512207099    4    3    7    6
 -0.002599636729025559    4    3    7    7
 -0.00082084139563727    4    3    8    1
 0.002240004376410368    4    3    8    2
 0.002015905591039283    4    3    8    3
 0.0004974528651602107    4    3    8    4
 0.005589736957848894    4    3    8    5
 0.0004990741405053048    4    3    8    6
 0.001449558463334655    4    3    8    7
 0.009499290308763458    4    3    8    8
 0.0001643863217493988    4    3    9    1
 0.004136517066882909    4    3    9    2
 -0.0001509768698077266    4    3    9    3
 -0.001940504843245239    4    3    9    4
 -0.002011450138232985    4    3    9    5
 0.004907744864828601    4    3    9    6
 0.001774393200658734    4    3    9    7
 0.006426075643417039    4    3    9    8
 -0.00777186976537125    4    3    9    9
 -5.818289034658942e-05    4    3   10    1
 -0.0003079567184909653    4    3   10    2
 -0.0008073658348228906    4    3   10    3
 -0.01329602111573054    4    3   10    4
 0.0004315849299224161    4    3   10    5
 0.0214079136340441    4    3   10    6
 0.0109842267300593    4    3   10    7
 -0.005323846159506756    4    3   10    8
 0.001868253164418609    4    3   10    9
 0.001621340258890555    4    3   10   10
 0.9010077562465013    4    4    1    1
 0.001922410961630224    4    4    2    1
 0.8774711770516235    4    4    2    2
 0.01868100015791652    4    4    3    1
 0.0007303324531152241    4    4    3    2
 0.8814624735793577    4    4    3    3
 3.959109653327649e-05    4    4    4    1
 -0.0004320538800860212    4    4    4    2
 0.001577509015993758    4    4    4    3
 0.960090149303348    4    4    4    4
 0.000722281737569456    4    4    5    1
 -0.002141858695191081    4    4    5    2
 -0.0004459305998581604    4    4    5    3
 0.0001118018968480857    4    4    5    4
 0.8849663465453693    4    4    5    5
 0.1137960873728287    4    4    6    1
 0.04708962357969799    4    4    6    2
 0.01191103335922735    4    4    6    3
 -0.2325778707659724    4    4    6    4
 0.01855416068081066    4    4    6    5
 0.7817782106090168    4    4    6    6
 -0.2326274291888943    4    4    7    1
 0.0109010822038363    4    4    7    2
 -0.01205989316652807    4    4    7    3
 -0.1165263572718848    4    4    7    4
 0.003586754711975583    4    4    7    5
 0.0214937905974677    4    4    7    6
 0.7483235526526548    4    4    7    7
 -0.01141937067928642    4    4    8    1
 0.2194856434904474    4    4    8    2
 0.004682864120927857    4    4    8    3
 0.0537349818330578    4    4    8    4
 0.1058665487358433    4    4    8    5
 -0.01161974451174417    4    4    8    6
 -0.006982864297304863    4    4    8    7
 0.7291222611988261    4    4    8    8
 0.0005189167320077775    4    4    9    1
 -0.1102528303453247    4    4    9    2
 -0.0377694572515337    4    4    9    3
 -0.004967531959719605    4    4    9    4
 0.2134987694969007    4    4    9    5
 0.001766543746504026    4    4    9    6
 0.002669358063544197    4    4    9    7
 0.008089882258614864    4    4    9    8
 0.7420703763305943    4    4    9    9
 0.003156039988044792    4    4   10    1
 0.02253987357990886    4    4   10    2
 -0.2455003243974535    4    4   10    3
 -0.003116852001812015    4    4   10    4
 -0.03001462847474008    4    4   10    5
 -0.003268102016897861    4    4   10    6
 0.01200769447265028    4    4   10    7
 -0.001367638224071529    4    4   10    8
 -0.002354953218713748    4    4   10    9
 0.7208354035655564    4    4   10   10
 0.0001441915490860792    5    1    1    1
 7.063713222252586e-05    5    1    2    1
 0.0003264406277020551    5    1    2    2
 0.0006947397450065792    5    1    3    1
 -0.0003624142784307401    5    1    3    2
 -0.0006764381715786482    5    1    3    3
 0.0006019469950061581    5    1    4    1
 -0.009418305013074273    5    1    4    2
 5.278186205709907e-05    5    1    4    3
 0.0007222817375694364    5    1    4    4
 0.0255780389606554    5    1    5    1
 0.0001928554106897009    5    1    5    2
 0.00944702406568811    5    1    5    3
 -0.0002626497544841851    5    1    5    4
 0.0001389580104017244    5    1    5    5
 0.000463624130318012    5    1    6    1
 0.002657553359230068    5    1    6    2
 0.0002718793351315364    5    1    6    3
 -0.0007240822768057999    5    1    6    4
 0.004691294838633074    5    1    6    5
 0.00347061773104533    5    1    6    6
 6.36815069381706e-05    5    1    7    1
 0.001319839636931198    5    1    7    2
 -0.0001659889955323779    5    1    7    3
 -0.0004444238314317198    5    1    7    4
 -0.009191997298755167    5    1    7    5
 0.0001748123043485275    5    1    7    6
 0.0003496013537838718    5    1    7    7
 0.003699806122561524    5    1    8    1
 -0.0004606926641773574    5    1    8    2
 0.001258560263212592    5    1    8    3
 -0.003220218511084782    5    1    8    4
 -0.0003479620162553163    5    1    8    5
 0.008022025931851111    5    1    8    6
 -0.004115966526576267    5    1    8    7
 -0.002599068251213157    5    1    8    8
 0.007264574179289741    5    1    9    1
 8.836360597357604e-05    5    1    9    2
 0.002880310934591437    5    1    9    3
 0.001513793852803358    5    1    9    4
 -0.0005319639890595852    5    1    9    5
 0.003995315908592383    5    1    9    6
 -0.01402156658403628    5    1    9    7
 -0.0001813634849289715    5    1    9    8
 -0.001593302308555849    5    1    9    9
 -0.00120208133600552    5    1   10    1
 0.0001498014137034412    5    1   10    2
 -0.0001396086838881687    5    1   10    3
 -0.0003426008742147291    5    1   10    4
 -0.003193238878368386    5    1   10    5
 -0.0009922133348639419    5    1   10    6
 0.002462112091835775    5    1   10    7
 -0.002263157922859346    5    1   10    8
 -0.005232070192928673    5    1   10    9
 0.001053843300374248    5    1   10   10
 -0.001453333611545984    5    2    1    1
 -0.0001061160898323937    5    2    2    1
 -0.001324966290249284    5    2    2    2
 -8.155512936949201e-05    5    2    3    1
 -0.0008918086650331879    5    2    3    2
 2.346561840228286e-05    5    2    3    3
 -0.009421535704645484    5    2    4    1
 -0.0005644481181527987    5    2    4    2
 0.01624779266177592    5    2    4    3
 -0.002141858695191084    5    2    4    4
 0.0001928554106896833    5    2    5    1
 0.03648264322362184    5    2    5    2
 0.0003588008577951438    5    2    5    3
 0.0006669517198915304    5    2    5    4
 -0.001306071296023176    5    2    5    5
 0.002539091280666783    5    2    6    1
 0.0009320160443974629    5    2    6    2
 -0.004244668810677259    5    2    6    3
 -0.0006672116122719629    5    2    6    4
 0.002315933053681778    5    2    6    5
 0.003106325781668812    5    2    6    6
 0.001955383650994708    5    2    7    1
 0.0002435107616833131    5    2    7    2
 -0.002056439602885204    5    2    7    3
 0.003347325913789634    5    2    7    4
 0.0004155022716744373    5    2    7    5
 -0.00349819746323435    5    2    7    6
 -0.005517891817924322    5    2    7    7
 -0.0005721446003823673    5    2    8    1
 0.004376661302680271    5    2    8    2
 0.0007306364233780561    5    2    8    3
 2.497358452600242e-05    5    2    8    4
 0.01188955378407814    5    2    8    5
 0.002955591282735573    5    2    8    6
 0.001803531602557234    5    2    8    7
 0.01790488111294715    5    2    8    8
 0.0001420830314297661    5    2    9    1
 0.01000865233328572    5    2    9    2
 0.0001465686776009768    5    2    9    3
 -0.0005623011542714628    5    2    9    4
 -0.006515427444703233    5    2    9    5
 0.004441073052215654    5    2    9    6
 0.001184271340450735    5    2    9    7
 0.01398552914868314    5    2    9    8
 -0.01998607189956731    5    2    9    9
 4.920061969914389e-05    5    2   10    1
 -0.001140160442823371    5    2   10    2
 -4.106440499126782e-05    5    2   10    3
 -0.005927422661937395    5    2   10    4
 0.001198992280655698    5    2   10    5
 0.009936780637994186    5    2   10    6
 0.005028166337045192    5    2   10    7
 -0.003654991337257547    5    2   10    8
 0.003185941788239586    5    2   10    9
 -0.0001290021972911672    5    2   10   10
 -0.001489902459221373    5    3    1    1
 0.0004454131514826639    5    3    2    1
 0.001676407150146066    5    3    2    2
 0.0004054253229490152    5    3    3    1
 -0.0006988825615031002    5    3    3    2
 -8.936438235924602e-05    5    3    3    3
 0.001061017964907589    5    3    4    1
 -0.01629538997421977    5    3    4    2
 -2.197551189536283e-05    5    3    4    3
 -0.0004459305998581347    5    3    4    4
 0.009447024065688144    5    3    5    1
 0.0003588008577951184    5    3    5    2
 0.0366160636868231    5    3    5    3
 -4.469872614193261e-05    5    3    5    4
 -0.0001044332126685826    5    3    5    5
 -0.0002798577231985653    5    3    6    1
 0.004395182277516578    5    3    6    2
 0.0009041397525118027    5    3    6    3
 -0.0008038576752829636    5    3    6    4
 0.002160455757329041    5    3    6    5
 0.003434264652881781    5    3    6    6
 0.0004445906706304786    5    3    7    1
 0.002034314825222713    5    3    7    2
 1.903891243254335e-05    5    3    7    3
 -0.00055945514792208    5    3    7    4
 -0.003526827409057789    5    3    7    5
 0.001616356042406038    5    3    7    6
 7.766706613447279e-06    5    3    7    7
 0.00164289135154784    5    3    8    1
 -0.0004684183735465289    5    3    8    2
 0.004999539451264927    5    3    8    3
 -0.005326902787991246    5    3    8    4
 0.0001202284520291565    5    3    8    5
 0.01039799564734976    5    3    8    6
 0.0013627317229644    5    3    8    7
 -0.002863074261325147    5    3    8    8
 0.002802909382163156    5    3    9    1
 -2.582435330311526e-05    5    3    9    2
 0.01054589639983998    5    3    9    3
 0.002609774442467662    5    3    9    4
 -0.002243031792107642    5    3    9    5
 -0.001797337288273435    5    3    9    6
 -0.007273317944267195    5    3    9    7
 -0.0003817045811461876    5    3    9    8
 -0.006545236342360979    5    3    9    9