 &FCI NORB=  10,NELEC= 6,MS2=6,
  ORBSYM=1,1,1,1,1,1,1,1,1,1,
  ISYM=1,
 &END
 0.5044814165238385    1    1    1    1
 9.289403514998078e-06    1    1    2    1
 0.4776044786033811    1    1    2    2
 4.765049516208137e-05    1    1    3    1
 2.82399761696843e-05    1    1    3    2
 0.4776787714772683    1    1    3    3
 -5.703645788231736e-05    1    1    4    1
 -7.642416476338155e-05    1    1    4    2
 -0.0001515945912483083    1    1    4    3
 0.4748324906570489    1    1    4    4
 3.088484715184735e-05    1    1    5    1
 0.0001422916958471574    1    1    5    2
 -0.0001025439831617901    1    1    5    3
 -3.738714922626284e-06    1    1    5    4
 0.4747712431257802    1    1    5    5
 0.0001881005771540067    1    1    6    1
 -5.079502960642024e-05    1    1    6    2
 -0.0001725854804429102    1    1    6    3
 -4.380984404645789e-05    1    1    6    4
 -1.304323868496596e-05    1    1    6    5
 0.5163039171718895    1    1    6    6
 5.537792626180353e-06    1    1    7    1
 0.002019507273435724    1    1    7    2
 0.007439048133951629    1    1    7    3
 5.106234773029974e-07    1    1    7    4
 6.964886308045324e-06    1    1    7    5
 4.409099819926154e-05    1    1    7    6
 0.469844412763822    1    1    7    7
 3.697285344974664e-06    1    1    8    1
 -0.007444109538952463    1    1    8    2
 0.002014060128149549    1    1    8    3
 4.713308442270877e-06    1    1    8    4
 7.940687523373763e-06    1    1    8    5
 -2.022706626049914e-05    1    1    8    6
 -6.237905494677122e-05    1    1    8    7
 0.4698943019941943    1    1    8    8
 4.479709226834158e-05    1    1    9    1
 -3.166921124767441e-07    1    1    9    2
 -2.120623071871698e-05    1    1    9    3
 0.006088097876057323    1    1    9    4
 0.001547810153383579    1    1    9    5
 -1.018223291353915e-05    1    1    9    6
 -0.000137280094522619    1    1    9    7
 -2.841235494828807e-05    1    1    9    8
 0.4735498289689535    1    1    9    9
 2.169889838359649e-05    1    1   10    1
 -1.780801726808738e-05    1    1   10    2
 -9.161482748484158e-06    1    1   10    3
 0.001567876154187611    1    1   10    4
 -0.006090572767185854    1    1   10    5
 -3.310958501066589e-07    1    1   10    6
 3.254690672237927e-06    1    1   10    7
 0.0001323663490613811    1    1   10    8
 4.569572326810292e-05    1    1   10    9
 0.473671678069136    1    1   10   10
 9.289403514990673e-06    2    1    1    1
 0.01633358377703239    2    1    2    1
 1.455359687930737e-05    2    1    2    2
 5.879472619731653e-06    2    1    3    1
 5.462012009456991e-06    2    1    3    2
 9.103007544530676e-06    2    1    3    3
 -5.25395006645706e-06    2    1    4    1
 0.0002987169494068427    2    1    4    2
 0.0005126655069814501    2    1    4    3
 1.454444393425242e-05    2    1    4    4
 1.313750435396285e-05    2    1    5    1
 -0.0004585932981550107    2    1    5    2
 0.0001895439835704478    2    1    5    3
 -4.425977393758602e-06    2    1    5    4
 9.244683498701476e-06    2    1    5    5
 -0.0005504302657797161    2    1    6    1
 1.536542886955521e-05    2    1    6    2
 -2.32358267011358e-06    2    1    6    3
 -0.008787043956721894    2    1    6    4
 0.01419702143848871    2    1    6    5
 9.30834049751824e-06    2    1    6    6
 -0.0008442594650589643    2    1    7    1
 -1.363477301886805e-06    2    1    7    2
 -5.213581459849777e-07    2    1    7    3
 0.0007384124318360988    2    1    7    4
 0.00194104284452289    2    1    7    5
 -2.107347105578669e-06    2    1    7    6
 1.4503636398645e-05    2    1    7    7
 0.002988092034371368    2    1    8    1
 -1.183927198196884e-06    2    1    8    2
 -2.297663022957366e-06    2    1    8    3
 0.001937239222589877    2    1    8    4
 -0.0006572638582987345    2    1    8    5
 4.539988495428943e-06    2    1    8    6
 2.325226170329445e-06    2    1    8    7
 2.634457760725207e-06    2    1    8    8
 2.216974450235905e-06    2    1    9    1
 -0.00130720648181782    2    1    9    2
 0.001923873931839454    2    1    9    3
 -2.524083081318347e-06    2    1    9    4
 -2.145144756056903e-06    2    1    9    5
 0.0006241441363132375    2    1    9    6
 0.004747572677215026    2    1    9    7
 0.00521379626947449    2    1    9    8
 5.88116430046049e-07    2    1    9    9
 7.48418770287689e-06    2    1   10    1
 -0.001797357637343819    2    1   10    2
 -0.00134647801254287    2    1   10    3
 4.261920841637422e-06    2    1   10    4
 -1.005709614466279e-06    2    1   10    5
 0.002801034934883171    2    1   10    6
 -0.005113094712002782    2    1   10    7
 0.003713678905604064    2    1   10    8
 1.05895872073366e-05    2    1   10    9
 1.246958276563899e-05    2    1   10   10
 0.4776044786033813    2    2    1    1
 1.455359687938092e-05    2    2    2    1
 0.5169088895775842    2    2    2    2
 4.452027318603292e-05    2    2    3    1
 3.457858988596761e-05    2    2    3    2
 0.4846617699423541    2    2    3    3
 -0.0001744246118271443    2    2    4    1
 -7.737409946180065e-05    2    2    4    2
 -0.0001456941501890948    2    2    4    3
 0.4911465828586163    2    2    4    4
 1.655167824436377e-05    2    2    5    1
 0.00015207595765868    2    2    5    2
 -0.0001042697305742585    2    2    5    3
 -0.01400640476135824    2    2    5    4
 0.5054119776940439    2    2    5    5
 0.0001798305600731811    2    2    6    1
 2.081697813900202e-05    2    2    6    2
 2.493963545045208e-05    2    2    6    3
 -4.452052102585029e-05    2    2    6    4
 -8.512568817235563e-06    2    2    6    5
 0.4886767398402437    2    2    6    6
 4.713283126855096e-06    2    2    7    1
 0.0003018758173371341    2    2    7    2
 -0.005683485031327493    2    2    7    3
 -5.025834409309458e-06    2    2    7    4
 3.06671086673671e-06    2    2    7    5
 -0.003005240682516971    2    2    7    6
 0.4783518519196168    2    2    7    7
 -4.994778408312359e-07    2    2    8    1
 -0.001356064561876148    2    2    8    2
 -0.001654604579997126    2    2    8    3
 1.074772176920602e-05    2    2    8    4
 -5.36015743198379e-07    2    2    8    5
 0.003381578312942255    2    2    8    6
 0.002381955463016343    2    2    8    7
 0.47047786123441    2    2    8    8
 0.002670087131825409    2    2    9    1
 3.617805904477e-06    2    2    9    2
 -8.325195282344852e-06    2    2    9    3
 -0.006053094379429223    2    2    9    4
 -0.004635893090480002    2    2    9    5
 -3.749073791923691e-06    2    2    9    6
 -0.0001269818063811653    2    2    9    7
 -2.659434796864671e-05    2    2    9    8
 0.4818329667218031    2    2    9    9
 0.003704680041677403    2    2   10    1
 -2.220810635948154e-05    2    2   10    2
 -1.136993318245372e-05    2    2   10    3
 0.0008110262571831962    2    2   10    4
 -0.0002708875039613539    2    2   10    5
 -1.368226734780107e-06    2    2   10    6
 1.674763787152418e-06    2    2   10    7
 0.0001205847262339259    2    2   10    8
 -0.001602606587140774    2    2   10    9
 0.4735554696539609    2    2   10   10
 4.765049516203315e-05    3    1    1    1
 5.879472619745565e-06    3    1    2    1
 4.452027318596552e-05    3    1    2    2
 0.01632920771807516    3    1    3    1
 -2.284720635293121e-06    3    1    3    2
 4.979714339785042e-05    3    1    3    3
 -1.16757116074732e-05    3    1    4    1
 0.0008557465988322791    3    1    4    2
 0.001385577917681455    3    1    4    3
 4.543696205900927e-05    3    1    4    4
 -1.072096733699045e-05    3    1    5    1
 -0.00131517235561494    3    1    5    2
 0.0008473278070740281    3    1    5    3
 2.88117462058205e-06    3    1    5    4
 4.676118597689992e-05    3    1    5    5
 -0.001624866197237507    3    1    6    1
 -2.633831092610727e-06    3    1    6    2
 1.721506027036162e-05    3    1    6    3
 -0.01417811750809847    3    1    6    4
 -0.008776973550499058    3    1    6    5
 5.162227686035149e-05    3    1    6    6
 -0.002973928275788746    3    1    7    1
 -2.599810071710274e-06    3    1    7    2
 -2.730772602336108e-06    3    1    7    3
 0.001898779673234833    3    1    7    4
 -0.000679186740203791    3    1    7    5
 -4.390778432663417e-06    3    1    7    6
 5.645042933039132e-05    3    1    7    7
 -0.0008359192551011084    3    1    8    1
 -1.33811670126086e-06    3    1    8    2
 -1.037079559156652e-06    3    1    8    3
 -0.0006730859984041074    3    1    8    4
 -0.001883835401638712    3    1    8    5
 -2.169741455694435e-06    3    1    8    6
 -8.439139182303429e-07    3    1    8    7
 4.604507375356529e-05    3    1    8    8
 7.891244020310519e-06    3    1    9    1
 0.001801064541386327    3    1    9    2
 0.001369977813172054    3    1    9    3
 -6.107800579831834e-06    3    1    9    4
 2.322726462874107e-06    3    1    9    5
 0.002808427565746351    3    1    9    6
 0.006717362029367017    3    1    9    7
 -0.004107394935205153    3    1    9    8
 3.643920700203572e-05    3    1    9    9
 -1.63909610908378e-06    3    1   10    1
 -0.001202764410656867    3    1   10    2
 0.001825916116454747    3    1   10    3
 -8.306382466816466e-07    3    1   10    4
 -1.778144639156673e-06    3    1   10    5
 -0.000600258305938063    3    1   10    6
 0.004401542518072589    3    1   10    7
 0.003669195599707579    3    1   10    8
 -1.049852284315202e-05    3    1   10    9
 5.221372070837182e-05    3    1   10   10
 2.823997616966017e-05    3    2    1    1
 5.462012009467561e-06    3    2    2    1
 3.457858988595902e-05    3    2    2    2
 -2.284720635291263e-06    3    2    3    1
 0.01615155482145798    3    2    3    2
 3.061667084273521e-05    3    2    3    3
 0.0001181402885282522    3    2    4    1
 -1.642652561888579e-06    3    2    4    2
 5.99590882047312e-06    3    2    4    3
 0.01401862937875134    3    2    4    4
 9.325831693639013e-05    3    2    5    1
 -1.027662053886857e-05    3    2    5    2
 1.194476918263371e-05    3    2    5    3
 -0.007167330125656489    3    2    5    4
 -0.01395442208980809    3    2    5    5
 -4.38321217232881e-06    3    2    6    1
 5.759999281937158e-06    3    2    6    2
 -5.830124225534389e-06    3    2    6    3
 -1.340759279599111e-06    3    2    6    4
 6.833507214753265e-06    3    2    6    5
 3.014886168767981e-05    3    2    6    6
 -3.455543697802744e-06    3    2    7    1
 0.003533111964725626    3    2    7    2
 0.0009744902700032203    3    2    7    3
 4.522417340241714e-07    3    2    7    4
 -7.55137512576859e-07    3    2    7    5
 0.003508064522988991    3    2    7    6
 -0.002232624326201554    3    2    7    7
 4.710972159223099e-07    3    2    8    1
 0.0009807551800271939    3    2    8    2
 -0.00358016639398671    3    2    8    3
 7.795650924510827e-07    3    2    8    4
 -1.189991876802205e-06    3    2    8    5
 0.002950139522643458    3    2    8    6
 0.003862275192914855    3    2    8    7
 0.002288563894560437    3    2    8    8
 -0.003765347825665639    3    2    9    1
 -5.206036600964351e-06    3    2    9    2
 -1.161129254458921e-06    3    2    9    3
 0.002740941541884969    3    2    9    4
 -0.003165570922773396    3    2    9    5
 -1.346712773371315e-06    3    2    9    6
 9.700765680348503e-06    3    2    9    7
 -4.599581648153591e-07    3    2    9    8
 -0.001456615920638413    3    2    9    9
 0.002613467649996803    3    2   10    1
 -1.022309214850642e-06    3    2   10    2
 -4.287818420232702e-06    3    2   10    3
 0.003186672625065666    3    2   10    4
 0.002748977448688016    3    2   10    5
 2.542343144339278e-06    3    2   10    6
 6.508041392170497e-07    3    2   10    7
 -7.143830775868057e-06    3    2   10    8
 -0.004066860806097179    3    2   10    9
 0.001515296303580083    3    2   10   10
 0.477678771477268    3    3    1    1
 9.103007544587831e-06    3    3    2    1
 0.4846617699423538    3    3    2    2
 4.979714339783337e-05    3    3    3    1
 3.061667084276966e-05    3    3    3    2
 0.5170181484296503    3    3    3    3
 0.0002511303144526579    3    3    4    1
 -8.25754098675501e-05    3    3    4    2
 -0.0001837187215378973    3    3    4    3
 0.5055191647464318    3    3    4    4
 7.871219374938984e-05    3    3    5    1
 0.0001652843050863447    3    3    5    2
 -0.0001313903953484753    3    3    5    3
 0.01397056863703306    3    3    5    4
 0.4911392093434153    3    3    5    5
 0.0002071580749007246    3    3    6    1
 6.296831911241436e-06    3    3    6    2
 5.653811143588365e-06    3    3    6    3
 -4.80359195007601e-05    3    3    6    4
 -1.663897905988617e-05    3    3    6    5
 0.4887561085026023    3    3    6    6
 -2.392807924797949e-06    3    3    7    1
 -0.001658966956434098    3    3    7    2
 0.001378233496104767    3    3    7    3
 -6.075505211642112e-06    3    3    7    4
 4.658668748548524e-06    3    3    7    5
 0.003033631302648915    3    3    7    6
 0.4707213971323862    3    3    7    7
 3.975506283145065e-06    3    3    8    1
 0.005795659256174697    3    3    8    2
 0.0003109480652251104    3    3    8    3
 3.89855665321104e-06    3    3    8    4
 2.786521062814563e-06    3    3    8    5
 -0.003414419110170492    3    3    8    6
 -0.002391438893363474    3    3    8    7
 0.478182572578336    3    3    8    8
 -0.002629362580533005    3    3    9    1
 4.352361447961649e-06    3    3    9    2
 -2.310407026465865e-05    3    3    9    3
 0.0003037173998636987    3    3    9    4
 0.0008238456937944997    3    3    9    5
 -5.864177705769608e-06    3    3    9    6
 -0.0001556539303550009    3    3    9    7
 -2.628632861068085e-05    3    3    9    8
 0.4737472901492317    3    3    9    9
 -0.003669150357058696    3    3   10    1
 -9.247698256645617e-06    3    3   10    2
 -7.203152024601153e-06    3    3   10    3
 -0.004655589986063126    3    3   10    4
 0.006127894521700786    3    3   10    5
 -3.532563426990226e-06    3    3   10    6
 -4.910906774021045e-07    3    3   10    7
 0.0001498815472025195    3    3   10    8
 0.001631665983264489    3    3   10    9
 0.4817174825752976    3    3   10   10
 -5.703645788233884e-05    4    1    1    1
 -5.253950066477222e-06    4    1    2    1
 -0.0001744246118271393    4    1    2    2
 -1.167571160745227e-05    4    1    3    1
 0.00011814028852824    4    1    3    2
 0.0002511303144526055    4    1    3    3
 0.01651184920756765    4    1    4    1
 1.897520852322136e-05    4    1    4    2
 3.178869914658229e-05    4    1    4    3
 -8.251177074754856e-05    4    1    4    4
 -6.304578564159143e-06    4    1    5    1
 -2.912423982670329e-05    4    1    5    2
 1.828244858720001e-05    4    1    5    3
 -2.846197361940256e-05    4    1    5    4
 -4.110407096683388e-05    4    1    5    5
 -3.553467410344282e-05    4    1    6    1
 -0.008849632524278403    4    1    6    2
 -0.01426194368036255    4    1    6    3
 1.444276351472052e-05    4    1    6    4
 1.954397468040256e-06    4    1    6    5
 -0.0002522778819842115    4    1    6    6
 3.412254770343307e-06    4    1    7    1
 0.0006388167639801868    4    1    7    2
 0.002223253438376657    4    1    7    3
 -4.621388188558502e-06    4    1    7    4
 7.10817198682469e-07    4    1    7    5
 0.003477411670593762    4    1    7    6
 0.006800593980199659    4    1    7    7
 -5.323552183208388e-07    4    1    8    1
 0.002165751288978612    4    1    8    2
 -0.0006364458618065573    4    1    8    3
 -1.977337267545554e-06    4    1    8    4
 -1.092657429666873e-06    4    1    8    5
 -0.001181548193583002    4    1    8    6
 -0.0001851034414028631    4    1    8    7
 -0.006908696029157492    4    1    8    8
 -0.002829836699437332    4    1    9    1
 -3.947301482723773e-06    4    1    9    2
 -5.011690422119226e-06    4    1    9    3
 0.002092067966650472    4    1    9    4
 0.0003465408026728128    4    1    9    5
 -8.995270198186212e-06    4    1    9    6
 3.216095131360496e-05    4    1    9    7
 3.260921769322059e-06    4    1    9    8
 0.006791443386911425    4    1    9    9
 -0.001128769414241549    4    1   10    1
 3.948598740227177e-06    4    1   10    2
 5.979440936270657e-07    4    1   10    3
 -0.0003023119223037854    4    1   10    4
 0.002027762986137141    4    1   10    5
 -3.584872595735544e-06    4    1   10    6
 1.968548552316162e-06    4    1   10    7
 -3.649497971209263e-05    4    1   10    8
 0.001554868294374996    4    1   10    9
 -0.006898189726349673    4    1   10   10
 -7.642416476350624e-05    4    2    1    1
 0.0002987169494068356    4    2    2    1
 -7.737409946167151e-05    4    2    2    2
 0.0008557465988322549    4    2    3    1
 -1.642652561903482e-06    4    2    3    2
 -8.257540986736532e-05    4    2    3    3
 1.897520852322912e-05    4    2    4    1
 0.09997827531356687    4    2    4    2
 0.1369431991014531    4    2    4    3
 -7.106607436776469e-05    4    2    4    4
 -3.93552500530418e-06    4    2    5    1
 -0.1369345791466361    4    2    5    2
 0.06873395341068256    4    2    5    3
 -2.419085843692802e-06    4    2    5    4
 -8.05703541704859e-05    4    2    5    5
 -0.149589163054295    4    2    6    1
 -1.03063355138484e-05    4    2    6    2
 -2.773965267973491e-05    4    2    6    3
 0.0009731306442340067    4    2    6    4
 -3.515576792139094e-05    4    2    6    5
 -0.0001011343089390544    4    2    6    6
 -0.001341265602917193    4    2    7    1
 5.13134274790214e-06    4    2    7    2
 -2.215157304011636e-06    4    2    7    3
 -0.004761229464042385    4    2    7    4
 -0.006622547527938562    4    2    7    5
 3.763938088258136e-06    4    2    7    6
 0.000169167225045578    4    2    7    7
 -0.004064339450887111    4    2    8    1
 9.943681561419108e-06    4    2    8    2
 6.144707979637435e-06    4    2    8    3
 -7.688583015140588e-05    4    2    8    4
 -0.00686371636419414    4    2    8    5
 5.169637911244074e-06    4    2    8    6
 -1.287343534581101e-05    4    2    8    7
 9.860017432209093e-05    4    2    8    8
 4.227105117340531e-06    4    2    9    1
 0.002682924706542779    4    2    9    2
 0.0003786393775287151    4    2    9    3
 -3.158029240775113e-06    4    2    9    4
 7.880546366919556e-06    4    2    9    5
 0.001804776820286087    4    2    9    6
 0.14828444833164    4    2    9    7
 0.01850524249055363    4    2    9    8
 -0.0002733999476906212    4    2    9    9
 -3.695164599299104e-06    4    2   10    1
 0.003172202874280711    4    2   10    2
 0.004332875212169799    4    2   10    3
 -7.765096132153105e-06    4    2   10    4
 -1.308040702951484e-06    4    2   10    5
 -0.003997233818347683    4    2   10    6
 0.01002511510334405    4    2   10    7
 -0.1472941501161989    4    2   10    8
 -7.631679615656319e-06    4    2   10    9
 -0.0002017664619580837    4    2   10   10
 -0.0001515945912482689    4    3    1    1
 0.0005126655069814392    4    3    2    1
 -0.0001456941501891737    4    3    2    2
 0.001385577917681431    4    3    3    1
 5.995908820444823e-06    4    3    3    2
 -0.0001837187215378748    4    3    3    3
 3.178869914661076e-05    4    3    4    1
 0.1369431991014531    4    3    4    2
 0.2379132131374072    4    3    4    3
 -0.0001495369950467712    4    3    4    4
 3.849746068392539e-06    4    3    5    1
 -0.2066871052449281    4    3    5    2
 0.1368950411081043    4    3    5    3
 -1.905628933285808e-05    4    3    5    4
 -0.0001656336363429645    4    3    5    5
 -0.2430553974101983    4    3    6    1
 -8.255791419373907e-06    4    3    6    2
 -5.299414804250005e-05    4    3    6    3
 0.001419949806179456    4    3    6    4
 0.0003019974273932848    4    3    6    5
 -0.0001937083912362753    4    3    6    6
 -0.004093403844125985    4    3    7    1
 5.790704747562314e-06    4    3    7    2
 -4.823903896289082e-06    4    3    7    3
 -0.005869734414261749    4    3    7    4
 -0.004484291853590286    4    3    7    5
 9.196123058914614e-06    4    3    7    6
 0.0002350374673577383    4    3    7    7
 0.001315522842083737    4    3    8    1
 1.148382553488666e-05    4    3    8    2
 6.777221475739435e-06    4    3    8    3
 0.006578283145410414    4    3    8    4
 -0.01254594966443054    4    3    8    5
 4.895083038513835e-06    4    3    8    6
 -2.893846964841436e-05    4    3    8    7
 0.0001342773265825017    4    3    8    8
 6.81388372095102e-06    4    3    9    1
 0.0003796864911981603    4    3    9    2
 0.00651469578681804    4    3    9    3
 -1.103818152926633e-05    4    3    9    4
 3.362035163800059e-06    4    3    9    5
 0.004120606038871112    4    3    9    6
 0.235835242258474    4    3    9    7
 0.02356382429828639    4    3    9    8
 -0.0004713962351552068    4    3    9    9
 -2.692129410829159e-06    4    3   10    1
 -0.0005464595674558671    4    3   10    2
 0.002401321123140761    4    3   10    3
 -1.258265485762626e-07    4    3   10    4
 -7.253609024402486e-06    4    3   10    5
 0.001741379573942104    4    3   10    6
 0.02278309585761038    4    3   10    7
 -0.2441277936447621    4    3   10    8
 -2.075193736712019e-05    4    3   10    9
 -0.0003644326308084465    4    3   10   10
 0.474832490657049    4    4    1    1
 1.4544443934267e-05    4    4    2    1
 0.4911465828586164    4    4    2    2
 4.543696205899024e-05    4    4    3    1
 0.01401862937875128    4    4    3    2
 0.5055191647464315    4    4    3    3
 -8.251177074761854e-05    4    4    4    1
 -7.106607436784484e-05    4    4    4    2
 -0.0001495369950467789    4    4    4    3
 0.5113671781085867    4    4    4    4
 1.03203287330468e-06    4    4    5    1
 0.0001357600442766442    4    4    5    2
 -0.0001033406777621966    4    4    5    3
 -1.912674095555234e-05    4    4    5    4
 0.4805589654547904    4    4    5    5
 0.0001760587314608126    4    4    6    1
 7.985936683156355e-05    4    4    6    2
 0.0003371807757196193    4    4    6    3
 -4.646029905133215e-05    4    4    6    4
 -8.430239416680522e-06    4    4    6    5
 0.4857787239959007    4    4    6    6
 -3.359295336929328e-06    4    4    7    1
 0.00151089410966983    4    4    7    2
 -0.0004780089480365506    4    4    7    3
 -6.402688792935132e-06    4    4    7    4
 2.697238222687882e-06    4    4    7    5
 0.004194587880249665    4    4    7    6
 0.4683897121804194    4    4    7    7
 2.488582343029264e-06    4    4    8    1
 0.005036194905070383    4    4    8    2
 -0.002999262608182396    4    4    8    3
 6.076327028604992e-06    4    4    8    4
 -2.620299851337033e-07    4    4    8    5
 0.0009665991286720741    4    4    8    6
 0.00232261316850945    4    4    8    7
 0.4758612507294591    4    4    8    8
 -0.004311305806552897    4    4    9    1
 2.698054082777706e-07    4    4    9    2
 -1.88794864740924e-05    4    4    9    3
 0.0001318438982456855    4    4    9    4
 -0.003418029206145519    4    4    9    5
 -5.748407947526003e-06    4    4    9    6
 -0.0001213687458815688    4    4    9    7
 -2.444374551723193e-05    4    4    9    8
 0.4721573376607548    4    4    9    9
 0.0005807554479809516    4    4   10    1
 -1.255818411338858e-05    4    4   10    2
 -1.054615365977694e-05    4    4   10    3
 -0.0008827382504333635    4    4   10    4
 0.006806677836846175    4    4   10    5
 -1.127993420716822e-06    4    4   10    6
 1.959719153150768e-06    4    4   10    7
 0.0001161271466761525    4    4   10    8
 -0.002876074622185709    4    4   10    9
 0.4785113234110625    4    4   10   10
 3.088484715189098e-05    5    1    1    1
 1.313750435395949e-05    5    1    2    1
 1.655167824429271e-05    5    1    2    2
 -1.072096733701826e-05    5    1    3    1
 9.325831693636448e-05    5    1    3    2
 7.871219374936054e-05    5    1    3    3
 -6.304578564156596e-06    5    1    4    1
 -3.935525005265163e-06    5    1    4    2
 3.849746068399223e-06    5    1    4    3
 1.032032873337671e-06    5    1    4    4
 0.01651291460919709    5    1    5    1
 -3.063168262961005e-06    5    1    5    2
 8.692516846362823e-06    5    1    5    3
 1.673568692445488e-05    5    1    5    4
 5.879021887404643e-05    5    1    5    5
 -6.643643725884945e-06    5    1    6    1
 0.01427275585462131    5    1    6    2
 -0.008839180735054261    5    1    6    3
 2.170527003016861e-06    5    1    6    4
 1.875419220890359e-05    5    1    6    5
 -9.121751736671009e-06    5    1    6    6
 9.321741448294147e-07    5    1    7    1
 0.002184445925755978    5    1    7    2
 -0.0007254861671213266    5    1    7    3
 -1.104225553263346e-06    5    1    7    4
 -5.268054385840487e-07    5    1    7    5
 0.001172434036126894    5    1    7    6
 -0.000118097452257182    5    1    7    7
 4.92147643990422e-06    5    1    8    1
 -0.0006786571155004612    5    1    8    2
 -0.002240060160270362    5    1    8    3
 1.806727157719588e-06    5    1    8    4
 -7.054822565958183e-08    5    1    8    5
 0.003453848755052282    5    1    8    6
 -0.006837614874744475    5    1    8    7
 0.0001759186138672563    5    1    8    8
 -0.001116103474993368    5    1    9    1
 -3.910323082374568e-06    5    1    9    2
 4.671672711369971e-07    5    1    9    3
 0.0002499425067945766    5    1    9    4
 -0.002085809824392357    5    1    9    5
 -3.178139613484735e-06    5    1    9    6
 6.276025247241725e-06    5    1    9    7
 9.17305110321532e-06    5    1    9    8
 -0.001490078502587412    5    1    9    9
 0.002838746392975031    5    1   10    1
 -1.686966813846662e-06    5    1   10    2
 -3.569750610689831e-06    5    1   10    3
 0.002083850705067714    5    1   10    4
 0.0003110249141559902    5    1   10    5
 8.443414229835913e-06    5    1   10    6
 -4.075223817935499e-06    5    1   10    7
 -1.010263247604167e-05    5    1   10    8
 0.006835148223549025    5    1   10    9
 0.001545495921887549    5    1   10   10
 0.0001422916958472789    5    2    1    1
 -0.0004585932981549985    5    2    2    1
 0.0001520759576586418    5    2    2    2
 -0.00131517235561491    5    2    3    1
 -1.027662053887209e-05    5    2    3    2
 0.0001652843050864759    5    2    3    3
 -2.91242398267222e-05    5    2    4    1
 -0.1369345791466362    5    2    4    2
 -0.2066871052449279    5    2    4    3
 0.0001357600442766944    5    2    4    4
 -3.063168263009839e-06    5    2    5    1
 0.2378790854390175    5    2    5    2
 -0.1368847000638397    5    2    5    3
 1.166180236714741e-05    5    2    5    4
 0.0001690147264500326    5    2    5    5
 0.2430198328545107    5    2    6    1
 7.155518647729439e-06    5    2    6    2
 4.92961462347749e-05    5    2    6    3
 -0.001585217714516991    5    2    6    4
 -0.0003140266330831414    5    2    6    5
 0.000183961400682397    5    2    6    6
 -0.004135339025137943    5    2    7    1
 -6.144718075368272e-06    5    2    7    2
 3.744575639143262e-06    5    2    7    3
 0.01253617388869352    5    2    7    4
 0.006603040709629431    5    2    7    5
 5.755297623836572e-07    5    2    7    6
 -0.0002535649310372622    5    2    7    7
 0.001289951394169833    5    2    8    1
 -1.377603888434145e-05    5    2    8    2
 -1.020478702858791e-05    5    2    8    3
 -0.004480059178740353    5    2    8    4
 0.005830868986247149    5    2    8    5
 -8.399579984074732e-06    5    2    8    6
 2.882270920948171e-05    5    2    8    7
 -0.0001326061816605052    5    2    8    8
 -4.491493088029867e-06    5    2    9    1
 0.002409127045036526    5    2    9    2
 0.0004366257088182743    5    2    9    3
 -1.613502873967216e-06    5    2    9    4
 -7.208492591865932e-06    5    2    9    5
 0.004059226963328434    5    2    9    6
 -0.2442570595176739    5    2    9    7
 -0.02280002236404383    5    2    9    8
 0.0004762375613111276    5    2    9    9
 1.788827546918689e-06    5    2   10    1
 -0.006488813772178729    5    2   10    2
 0.0004209280795931712    5    2   10    3
 5.351644516218453e-06    5    2   10    4
 -1.177822488685698e-06    5    2   10    5
 0.001737779328751541    5    2   10    6
 -0.02354837116219025    5    2   10    7
 0.2356931822967093    5    2   10    8
 2.267985925265714e-05    5    2   10    9
 0.0003499126480726249    5    2   10   10
 -0.0001025439831616046    5    3    1    1
 0.0001895439835704248    5    3    2    1
 -0.0001042697305742819    5    3    2    2
 0.0008473278070740221    5    3    3    1
 1.194476918264058e-05    5    3    3    2
 -0.0001313903953486166    5    3    3    3
 1.828244858723641e-05    5    3    4    1
 0.06873395341068261    5    3    4    2
 0.1368950411081042    5    3    4    3
 -0.0001033406777622664    5    3    4    4
 8.692516846389845e-06    5    3    5    1
 -0.1368847000638397    5    3    5    2
 0.09992055170725335    5    3    5    3
 -1.711460761671692e-05    5    3    5    4
 -0.0001242735169065171    5    3    5    5
 -0.1495521067048333    5    3    6    1
 1.498213764415278e-06    5    3    6    2
 -3.522608238180336e-05    5    3    6    3
 0.0009009808974263001    5    3    6    4
 0.0002972729980676653    5    3    6    5
 -0.0001291882764721226    5    3    6    6
 0.001364369524632103    5    3    7    1
 2.643547031797932e-06    5    3    7    2
 -2.382329878467027e-06    5    3    7    3
 -0.006879107650956537    5    3    7    4
 3.326233332130742e-05    5    3    7    5
 1.636282664254811e-06    5    3    7    6
 0.0001333398017651713    5    3    7    7
 0.004055689610630397    5    3    8    1
 5.076176463755168e-06    5    3    8    2
 4.787016420699952e-06    5    3    8    3
 0.006620398778705628    5    3    8    4
 -0.004756843300692132    5    3    8    5
 3.204770754998553e-06    5    3    8    6
 -2.271281546975574e-05    5    3    8    7
 6.710677678447029e-05    5    3    8    8
 2.732178240964969e-06    5    3    9    1
 -0.004294485464315471    5    3    9    2
 0.003190030983462293    5    3    9    3