 &FCI NORB=   5,NELEC= 7,MS2=3,
  ORBSYM=1,1,1,1,1,
  ISYM=1,
 &END
 0.9360849313209713    1    1    1    1
 -2.63100648902699e-08    1    1    2    1
 0.8550284503556694    1    1    2    2
 -1.032559973572326e-07    1    1    3    1
 -0.0009959726126278264    1    1    3    2
 0.8758893020544323    1    1    3    3
 0.002126924745826382    1    1    4    1
 4.987412399528614e-08    1    1    4    2
 6.618910262023916e-07    1    1    4    3
 0.8692446868855689    1    1    4    4
 -3.566041667998356e-08    1    1    5    1
 -0.0009626027787371117    1    1    5    2
 0.01589122443742245    1    1    5    3
 1.562667915395947e-07    1    1    5    4
 0.888873262661779    1    1    5    5
 -2.631006489051723e-08    2    1    1    1
 0.04117909956458475    2    1    2    1
 -1.520476612158312e-08    2    1    2    2
 0.001067301241132492    2    1    3    1
 -9.787584947945293e-08    2    1    3    2
 4.724524443397051e-08    2    1    3    3
 -1.437315616055774e-08    2    1    4    1
 0.001691956598182448    2    1    4    2
 -0.01682585206698401    2    1    4    3
 -4.423427851414887e-07    2    1    4    4
 -6.663700551884071e-06    2    1    5    1
 3.362501353707117e-08    2    1    5    2
 4.005258417617605e-07    2    1    5    3
 0.007887985154305768    2    1    5    4
 3.389750246141358e-07    2    1    5    5
 0.8550284503556703    2    2    1    1
 -1.520476612239881e-08    2    2    2    1
 0.9381899359752327    2    2    2    2
 8.836124954694888e-08    2    2    3    1
 0.001314559322152753    2    2    3    2
 0.8812806118944139    2    2    3    3
 -0.001390711572759776    2    2    4    1
 1.669855345558379e-08    2    2    4    2
 -5.744974859467095e-07    2    2    4    3
 0.8922574965573967    2    2    4    4
 -8.157837965366106e-08    2    2    5    1
 -0.001239277836602742    2    2    5    2
 -0.01197162189226518    2    2    5    3
 1.121311935395677e-07    2    2    5    4
 0.8634461167037687    2    2    5    5
 -1.032559973559214e-07    3    1    1    1
 0.001067301241132503    3    1    2    1
 8.836124954804483e-08    3    1    2    2
 0.03124292096003279    3    1    3    1
 -3.289897346140638e-08    3    1    3    2
 -1.169807795352423e-07    3    1    3    3
 -3.334356963747612e-07    3    1    4    1
 0.007663829709579476    3    1    4    2
 0.006287572700509087    3    1    4    3
 1.567772011667322e-07    3    1    4    4
 -0.007409938635942795    3    1    5    1
 -1.309095540831648e-07    3    1    5    2
 2.633292100969806e-08    3    1    5    3
 0.0120890763393894    3    1    5    4
 -5.309413685434326e-07    3    1    5    5
 -0.0009959726126279932    3    2    1    1
 -9.787584947927104e-08    3    2    2    1
 0.001314559322152689    3    2    2    2
 -3.289897346238397e-08    3    2    3    1
 0.02901821344279935    3    2    3    2
 0.001435880127315783    3    2    3    3
 0.009103182023498321    3    2    4    1
 2.784547390647768e-07    3    2    4    2
 1.060222474969617e-07    3    2    4    3
 -0.005503962144203202    3    2    4    4
 -2.711437277390521e-07    3    2    5    1
 0.006555990569687638    3    2    5    2
 -0.00850075678767425    3    2    5    3
 1.295948472459284e-07    3    2    5    4
 0.00991223020102943    3    2    5    5
 0.8758893020544321    3    3    1    1
 4.724524443371005e-08    3    3    2    1
 0.8812806118944138    3    3    2    2
 -1.169807795261131e-07    3    3    3    1
 0.001435880127315802    3    3    3    2
 0.9415754875318956    3    3    3    3
 -0.01031213998925729    3    3    4    1
 -1.958419419707526e-07    3    3    4    2
 -4.76653092983028e-09    3    3    4    3
 0.86883186847628    3    3    4    4
 -8.780980963960785e-08    3    3    5    1
 0.01583364994516071    3    3    5    2
 0.001346296386703633    3    3    5    3
 -6.270723719702933e-08    3    3    5    4
 0.869148522732082    3    3    5    5
 0.002126924745826522    4    1    1    1
 -1.437315616011872e-08    4    1    2    1
 -0.001390711572759972    4    1    2    2
 -3.334356963757438e-07    4    1    3    1
 0.009103182023498293    4    1    3    2
 -0.01031213998925739    4    1    3    3
 0.03614925893238459    4    1    4    1
 2.064525832632097e-07    4    1    4    2
 -1.340137999484343e-07    4    1    4    3
 0.002153241791628822    4    1    4    4
 -3.781692258708029e-08    4    1    5    1
 -0.002887994344140604    4    1    5    2
 -0.00758223119118786    4    1    5    3
 -6.148060528522904e-08    4    1    5    4
 0.01732717671382915    4    1    5    5
 4.987412399465468e-08    4    2    1    1
 0.001691956598182438    4    2    2    1
 1.669855345718606e-08    4    2    2    2
 0.007663829709579478    4    2    3    1
 2.78454739064383e-07    4    2    3    2
 -1.958419419676475e-07    4    2    3    3
 2.064525832628793e-07    4    2    4    1
 0.02520614556940137    4    2    4    2
 0.003481248821282058    4    2    4    3
 1.505683360647779e-08    4    2    4    4
 -0.004975464391127845    4    2    5    1
 -1.867165613433796e-08    4    2    5    2
 -1.926367151883254e-07    4    2    5    3
 0.008486695702762871    4    2    5    4
 1.950406635507469e-07    4    2    5    5
 6.61891026200977e-07    4    3    1    1
 -0.016825852066984    4    3    2    1
 -5.744974859370199e-07    4    3    2    2
 0.006287572700509074    4    3    3    1
 1.06022247494615e-07    4    3    3    2
 -4.766530930202551e-09    4    3    3    3
 -1.340137999504803e-07    4    3    4    1
 0.003481248821282065    4    3    4    2
 0.03785351068100348    4    3    4    3
 -8.277623954923159e-09    4    3    4    4
 -0.004571374166584306    4    3    5    1
 5.8302309398746e-08    4    3    5    2
 7.298116374091109e-08    4    3    5    3
 0.001128025205303011    4    3    5    4
 -1.166829929479643e-07    4    3    5    5
 0.8692446868855682    4    4    1    1
 -4.423427851411941e-07    4    4    2    1
 0.8922574965573967    4    4    2    2
 1.567772011667627e-07    4    4    3    1
 -0.005503962144203041    4    4    3    2
 0.8688318684762801    4    4    3    3
 0.002153241791628843    4    4    4    1
 1.505683360676239e-08    4    4    4    2
 -8.277623961489358e-09    4    4    4    3
 0.9477777092991636    4    4    4    4
 8.67998706419827e-08    4    4    5    1
 -0.01805734071608091    4    4    5    2
 -0.0008539139707601581    4    4    5    3
 8.183550283845847e-08    4    4    5    4
 0.8737948712946596    4    4    5    5
 -3.56604166795143e-08    5    1    1    1
 -6.663700551885063e-06    5    1    2    1
 -8.157837965432323e-08    5    1    2    2
 -0.007409938635942788    5    1    3    1
 -2.711437277392249e-07    5    1    3    2
 -8.780980963837923e-08    5    1    3    3
 -3.781692258666016e-08    5    1    4    1
 -0.004975464391127847    5    1    4    2
 -0.004571374166584308    5    1    4    3
 8.679987064239774e-08    5    1    4    4
 0.02479308058881497    5    1    5    1
 -1.718545712357543e-07    5    1    5    2
 2.127032280444073e-07    5    1    5    3
 -0.007645571966936829    5    1    5    4
 -2.929631687265898e-08    5    1    5    5
 -0.000962602778737096    5    2    1    1
 3.362501353683549e-08    5    2    2    1
 -0.001239277836602721    5    2    2    2
 -1.309095540832689e-07    5    2    3    1
 0.00655599056968766    5    2    3    2
 0.01583364994516072    5    2    3    3
 -0.002887994344140591    5    2    4    1
 -1.867165613446099e-08    5    2    4    2
 5.830230939823947e-08    5    2    4    3
 -0.01805734071608088    5    2    4    4
 -1.718545712356976e-07    5    2    5    1
 0.0379529407869988    5    2    5    2
 -0.004340652030040283    5    2    5    3
 -8.751317021498176e-08    5    2    5    4
 -0.001193440973466767    5    2    5    5
 0.01589122443742267    5    3    1    1
 4.005258417617417e-07    5    3    2    1
 -0.01197162189226516    5    3    2    2
 2.633292100979716e-08    5    3    3    1
 -0.008500756787674256    5    3    3    2
 0.001346296386703636    5    3    3    3
 -0.007582231191187824    5    3    4    1
 -1.926367151885448e-07    5    3    4    2
 7.298116373778393e-08    5    3    4    3
 -0.0008539139707604601    5    3    4    4
 2.127032280444878e-07    5    3    5    1
 -0.004340652030040269    5    3    5    2
 0.03583782571225503    5    3    5    3
 5.225174767409751e-08    5    3    5    4
 0.001106561011212466    5    3    5    5
 1.562667915366183e-07    5    4    1    1
 0.007887985154305768    5    4    2    1
 1.12131193543849e-07    5    4    2    2
 0.0120890763393894    5    4    3    1
 1.295948472447721e-07    5    4    3    2
 -6.270723719212496e-08    5    4    3    3
 -6.148060528503761e-08    5    4    4    1
 0.008486695702762873    5    4    4    2
 0.001128025205303011    5    4    4    3
 8.183550284063704e-08    5    4    4    4
 -0.007645571966936818    5    4    5    1
 -8.751317021655089e-08    5    4    5    2
 5.225174767465146e-08    5    4    5    3
 0.03509652115310121    5    4    5    4
 7.504788110252727e-08    5    4    5    5
 0.8888732626617798    5    5    1    1
 3.389750246134658e-07    5    5    2    1
 0.863446116703769    5    5    2    2
 -5.309413685472244e-07    5    5    3    1
 0.009912230201029328    5    5    3    2
 0.8691485227320827    5    5    3    3
 0.01732717671382907    5    5    4    1
 1.950406635495648e-07    5    5    4    2
 -1.166829929465248e-07    5    5    4    3
 0.8737948712946602    5    5    4    4
 -2.92963168729916e-08    5    5    5    1
 -0.001193440973466807    5    5    5    2
 0.001106561011212411    5    5    5    3
 7.504788109904236e-08    5    5    5    4
 0.9406816190426328    5    5    5    5
 -5.964073884382121    1    1  0  0
 1.470592908762492e-07    2    1  0  0
 -5.973501019001518    2    2  0  0
 2.345747955457416e-07    3    1  0  0
 -0.002613923834558838    3    2  0  0
 -5.944566495435645    3    3  0  0
 -0.005281787268586484    4    1  0  0
 -1.637364129061695e-07    4    2  0  0
 2.079240190258871e-07    4    3  0  0
 -5.966082154894848    4    4  0  0
 2.288759446810726e-07    5    1  0  0
 0.007328879623834009    5    2  0  0
 0.002183657458122795    5    3  0  0
 -5.301811067837656e-08    5    4  0  0
 -5.977628327331616    5    5  0  0
 -3208.005238427111  0  0  0  0
