 &FCI NORB=  22,NELEC=31,MS2=3,
  ORBSYM=1,1,1,1,1,1,1,1,1,1,1,1,1,1,1,1,1,1,1,1,1,1,
  ISYM=1,
 &END
 0.239198287734457    1    1    1    1
 -0.007125192318311966    1    1    2    1
 0.2379840876318508    1    1    2    2
 -0.01039024216636429    1    1    3    1
 0.0127134924799586    1    1    3    2
 0.2355261907458666    1    1    3    3
 -0.003056656014867714    1    1    4    1
 0.01411438722576385    1    1    4    2
 -0.007291926540762842    1    1    4    3
 0.2154243701226061    1    1    4    4
 0.00105275424898426    1    1    5    1
 -0.01320585807389701    1    1    5    2
 -0.00127262314967876    1    1    5    3
 0.01086170343022211    1    1    5    4
 0.2207662105794032    1    1    5    5
 -0.004998480106746013    1    1    6    1
 0.007784204537261375    1    1    6    2
 0.006014902472874923    1    1    6    3
 0.002072210732259727    1    1    6    4
 0.0009897428843582917    1    1    6    5
 0.2259314998070058    1    1    6    6
 -0.008842920376039346    1    1    7    1
 -0.001990903790550898    1    1    7    2
 -0.007146166490933943    1    1    7    3
 -0.005272538266466964    1    1    7    4
 -0.003805649260631507    1    1    7    5
 0.002724241529131805    1    1    7    6
 0.2164510322639569    1    1    7    7
 -0.004506706874410698    1    1    8    1
 0.005994682359896334    1    1    8    2
 -0.00158943627105255    1    1    8    3
 -0.001696826990281161    1    1    8    4
 -0.003416737426674882    1    1    8    5
 0.003175894268756403    1    1    8    6
 0.005925968142695056    1    1    8    7
 0.1994655004646594    1    1    8    8
 0.002139170355825901    1    1    9    1
 -0.0061294236048954    1    1    9    2
 -0.0004066031053262941    1    1    9    3
 0.002157537289136227    1    1    9    4
 -0.0008913216493556378    1    1    9    5
 -0.001861942124383826    1    1    9    6
 -0.0001798021142956937    1    1    9    7
 0.007470871784234303    1    1    9    8
 0.2164110858967387    1    1    9    9
 -0.001793395534973411    1    1   10    1
 0.0003566292277421171    1    1   10    2
 -0.001742692175705628    1    1   10    3
 -0.003010901293141148    1    1   10    4
 -0.001107308125121517    1    1   10    5
 0.0003180810069519269    1    1   10    6
 0.001951883714463048    1    1   10    7
 0.0004422726245416123    1    1   10    8
 -0.0001555354671937491    1    1   10    9
 0.197908171608275    1    1   10   10
 -0.001848279598402762    1    1   11    1
 0.0005861051486042567    1    1   11    2
 -0.004567148757399932    1    1   11    3
 -0.004809143515242502    1    1   11    4
 0.00249132819229343    1    1   11    5
 -0.004409641574538341    1    1   11    6
 -0.001805044313768903    1    1   11    7
 -0.006132394278854199    1    1   11    8
 0.0009181314383728492    1    1   11    9
 -0.004041464663310569    1    1   11   10
 0.1983351460709092    1    1   11   11
 0.003873493037287897    1    1   12    1
 -0.00116373750179767    1    1   12    2
 0.001831205374668826    1    1   12    3
 -0.002292025590914301    1    1   12    4
 -0.002813460481948701    1    1   12    5
 -0.005761875729934571    1    1   12    6
 -0.001368433579566865    1    1   12    7
 -0.004515911932310386    1    1   12    8
 -0.00279348422259816    1    1   12    9
 -0.003766152045807304    1    1   12   10
 0.0002081995737144931    1    1   12   11
 0.1870748272678176    1    1   12   12
 -0.0002037273896951265    1    1   13    1
 -0.001908593503615932    1    1   13    2
 -0.0005410605468558652    1    1   13    3
 -0.000893747507935928    1    1   13    4
 0.001350472321182001    1    1   13    5
 0.00316623590874023    1    1   13    6
 0.001995924348581808    1    1   13    7
 -0.006271238596023572    1    1   13    8
 0.00166778471141421    1    1   13    9
 0.0003194049275169131    1    1   13   10
 -0.0008559899914795455    1    1   13   11
 -0.0008982002412334775    1    1   13   12
 0.275206228202997    1    1   13   13
 -0.001740619660237251    1    1   14    1
 0.000215341830314029    1    1   14    2
 -0.0002085237238981583    1    1   14    3
 -0.001292745891571293    1    1   14    4
 0.0003371359334588553    1    1   14    5
 0.00018063796010349    1    1   14    6
 -0.0002298718624068359    1    1   14    7
 0.0004727706899548261    1    1   14    8
 -0.0009074745686109388    1    1   14    9
 0.0008998906381243958    1    1   14   10
 0.0005288328402604876    1    1   14   11
 0.0003850215257571877    1    1   14   12
 0.0005988486439870233    1    1   14   13
 0.2775613523512347    1    1   14   14
 -0.0007485409658575259    1    1   15    1
 -0.000522241562877481    1    1   15    2
 -0.0002165897144757767    1    1   15    3
 -0.0002425449468847206    1    1   15    4
 -0.0009085657662393936    1    1   15    5
 -0.0005830650884147319    1    1   15    6
 -0.001868551365029576    1    1   15    7
 0.0002022533877602222    1    1   15    8
 0.003079968750229787    1    1   15    9
 0.002884620659419672    1    1   15   10
 -0.002230855456152035    1    1   15   11
 0.00510556473741477    1    1   15   12
 0.0001228562703332825    1    1   15   13
 -0.0002557367479623244    1    1   15   14
 0.2763576931171519    1    1   15   15
 0.0002179600454893393    1    1   16    1
 -0.0005253803705933608    1    1   16    2
 0.001056075445636914    1    1   16    3
 -0.00313321635798957    1    1   16    4
 -0.0009705765884876234    1    1   16    5
 -0.001782484140545302    1    1   16    6
 0.007703858825408295    1    1   16    7
 0.002486599297581493    1    1   16    8
 5.291688268053112e-05    1    1   16    9
 0.0005995820032521958    1    1   16   10
 -7.101910030809142e-06    1    1   16   11
 0.0002422701460663271    1    1   16   12
 0.0005328317439662522    1    1   16   13
 0.0001102287607565393    1    1   16   14
 -0.0004596672351501632    1    1   16   15
 0.2766453583404169    1    1   16   16
 -0.0007433599692639565    1    1   17    1
 0.0001208444490400428    1    1   17    2
 0.001503102044835594    1    1   17    3
 0.0002167832757987106    1    1   17    4
 0.002763112850239603    1    1   17    5
 -0.007309489846926966    1    1   17    6
 0.0001782182860383184    1    1   17    7
 -0.0008784166777741197    1    1   17    8
 3.194729872132191e-05    1    1   17    9
 -4.05252937849393e-05    1    1   17   10
 0.001029886991272455    1    1   17   11
 -0.0009515862187887925    1    1   17   12
 0.0002523651757763365    1    1   17   13
 -0.0002655862795804373    1    1   17   14
 0.0009527731852903886    1    1   17   15
 0.0003249900168616701    1    1   17   16
 0.2771034332424041    1    1   17   17
 0.001771001310429711    1    1   18    1
 -0.0008279196375040252    1    1   18    2
 -0.001040033726282578    1    1   18    3
 0.002132945227545496    1    1   18    4
 0.001734736559428618    1    1   18    5
 -0.0001246740773804451    1    1   18    6
 -0.002000855529310874    1    1   18    7
 -0.004217044845716871    1    1   18    8
 0.002701152097496868    1    1   18    9
 0.000147413232766544    1    1   18   10
 -0.0009569389686621718    1    1   18   11
 -0.0002771966239079517    1    1   18   12
 -0.004081066980823511    1    1   18   13
 0.003978137108542664    1    1   18   14
 -0.0004280341669557938    1    1   18   15
 0.002773883353789929    1    1   18   16
 -0.001373977544777687    1    1   18   17
 0.2702470249825101    1    1   18   18
 0.0007707735411770844    1    1   19    1
 2.518882514204932e-05    1    1   19    2
 0.0001175479729708028    1    1   19    3
 7.471516220509078e-05    1    1   19    4
 -0.0008263037047755311    1    1   19    5
 -0.004512642797730539    1    1   19    6
 0.002244547857518285    1    1   19    7
 0.004017706345536677    1    1   19    8
 0.0006221553143866542    1    1   19    9
 0.0008698220318252304    1    1   19   10
 -0.001142857871646997    1    1   19   11
 0.002599860051339525    1    1   19   12
 0.00360194350128761    1    1   19   13
 0.002072888064029326    1    1   19   14
 -0.002837300242714768    1    1   19   15
 -0.003696748014137315    1    1   19   16
 -0.0007316359073554844    1    1   19   17
 0.001646506790862539    1    1   19   18
 0.2706869527986124    1    1   19   19
 -0.001257018459459527    1    1   20    1
 -0.001077403397522093    1    1   20    2
 0.0001803766319779022    1    1   20    3
 -0.0009678085113759353    1    1   20    4
 0.002377511566942442    1    1   20    5
 -0.002287889487789108    1    1   20    6
 -0.0006823809298276212    1    1   20    7
 -0.001732938148938706    1    1   20    8
 0.002040382785424935    1    1   20    9
 0.002798224467757685    1    1   20   10
 -0.001165174814196703    1    1   20   11
 0.002636231561599436    1    1   20   12
 -0.001830339453158812    1    1   20   13
 -0.003387420700422181    1    1   20   14
 -0.003645127791281991    1    1   20   15
 0.0002468624844365806    1    1   20   16
 -0.002104715951802352    1    1   20   17
 0.0005906461252269058    1    1   20   18
 0.0007340038215463265    1    1   20   19
 0.2711359884009637    1    1   20   20
 0.0003982334084307911    1    1   21    1
 -0.002162022077580486    1    1   21    2
 -0.0007197312256330031    1    1   21    3
 -0.001755586709320803    1    1   21    4
 0.0002692228647443808    1    1   21    5
 0.002349855545256445    1    1   21    6
 0.005531153306489755    1    1   21    7
 -0.004591639884007175    1    1   21    8
 0.0008440988004403878    1    1   21    9
 4.039836221965531e-07    1    1   21   10
 -0.0004536675505285122    1    1   21   11
 -0.0001720367920849682    1    1   21   12
 -0.006007370056042374    1    1   21   13
 0.000986424469651051    1    1   21   14
 -0.0001534273881378673    1    1   21   15
 -0.002885096265130784    1    1   21   16
 0.001144509740698313    1    1   21   17
 -0.003112742908386475    1    1   21   18
 0.001420245997225851    1    1   21   19
 -0.0009383142439788862    1    1   21   20
 0.2698448652257653    1    1   21   21
 0.0002173758678217619    1    1   22    1
 -0.001011185591885357    1    1   22    2
 -3.389601246207741e-05    1    1   22    3
 -0.00115720165960922    1    1   22    4
 0.0011994456686966    1    1   22    5
 -0.003935964466407808    1    1   22    6
 0.001791903013000788    1    1   22    7
 -0.0008769844322556393    1    1   22    8
 -0.002835661425489171    1    1   22    9
 -0.001650845645527752    1    1   22   10
 0.001221820809726861    1    1   22   11
 -0.003810905257508453    1    1   22   12
 -0.0004312511566731518    1    1   22   13
 -0.0002548610585917384    1    1   22   14
 0.004867185620081631    1    1   22   15
 -0.0002785799815061439    1    1   22   16
 -0.004275455060049664    1    1   22   17
 -0.0003312466739848733    1    1   22   18
 0.002328529903125019    1    1   22   19
 0.001443435306582465    1    1   22   20
 0.0004525272081512257    1    1   22   21
 0.2702917700625889    1    1   22   22
 -0.007125192318311933    2    1    1    1
 0.05602792188822527    2    1    2    1
 -0.01028689797767776    2    1    2    2
 0.01574719732581279    2    1    3    1
 -0.03635020301084309    2    1    3    2
 -0.009337432416365199    2    1    3    3
 0.01912534154180383    2    1    4    1
 0.0008160478296003375    2    1    4    2
 -0.01798578035237056    2    1    4    3
 0.01554588468738178    2    1    4    4
 -0.01268424936922113    2    1    5    1
 0.02356791438793034    2    1    5    2
 0.01472353879823564    2    1    5    3
 0.01891599552892137    2    1    5    4
 0.0187788990904841    2    1    5    5
 0.005526212078702958    2    1    6    1
 -0.00735214005704841    2    1    6    2
 -0.03943625541803202    2    1    6    3
 0.0160810493124194    2    1    6    4
 -0.008304604529723755    2    1    6    5
 -0.0254698241340476    2    1    6    6
 0.002665303051119421    2    1    7    1
 -0.004299621803115203    2    1    7    2
 0.007846737426274387    2    1    7    3
 -0.006345576964388869    2    1    7    4
 -0.007028770516067948    2    1    7    5
 -0.003160046904708111    2    1    7    6
 0.02625768924356944    2    1    7    7
 0.002208073230578784    2    1    8    1
 -0.007682783955829824    2    1    8    2
 -0.005055209592578065    2    1    8    3
 -0.007408110821879088    2    1    8    4
 -0.001996626459121084    2    1    8    5
 -0.01217216235426385    2    1    8    6
 -0.001117096169193832    2    1    8    7
 0.02166611078984941    2    1    8    8
 -0.01159527615370091    2    1    9    1
 0.00570245429091569    2    1    9    2
 -2.964598822992628e-05    2    1    9    3
 -0.03300648921678    2    1    9    4
 -0.006903836981642346    2    1    9    5
 0.002675357437151593    2    1    9    6
 0.01607272767389899    2    1    9    7
 -0.02095338436635529    2    1    9    8
 -0.05278556841587793    2    1    9    9
 -0.005396486099460751    2    1   10    1
 0.003713064958111521    2    1   10    2
 -0.005409757573829543    2    1   10    3
 -0.00852358559707545    2    1   10    4
 0.005278452095974503    2    1   10    5
 -0.007100709627317773    2    1   10    6
 -0.003677310123050443    2    1   10    7
 0.01557749340040734    2    1   10    8
 -8.128653387075536e-05    2    1   10    9
 0.03078063811313408    2    1   10   10
 0.00298389726651714    2    1   11    1
 0.002536841690362955    2    1   11    2
 0.01468147166418375    2    1   11    3
 0.00644266725950157    2    1   11    4
 0.001812070411818367    2    1   11    5
 0.01958071243575499    2    1   11    6
 0.006098283061260637    2    1   11    7
 0.005708812426245189    2    1   11    8
 0.01592587581619172    2    1   11    9
 -0.004780658951816627    2    1   11   10
 0.01447455299539695    2    1   11   11
 0.002379339306168786    2    1   12    1
 -0.009352444059949339    2    1   12    2
 0.0117120255185973    2    1   12    3
 0.004742573437728333    2    1   12    4
 -0.01715608648045857    2    1   12    5
 0.006010837016974213    2    1   12    6
 -0.007699046188114051    2    1   12    7
 -0.005000528270977093    2    1   12    8
 -0.005900540224951866    2    1   12    9
 0.01184401294802787    2    1   12   10
 0.01070932277233692    2    1   12   11
 -0.02144919779411605    2    1   12   12
 0.004030257949985633    2    1   13    1
 -0.0007209752573464926    2    1   13    2
 -0.002221537909891518    2    1   13    3
 -0.0002876688646584025    2    1   13    4
 0.0007073704655526981    2    1   13    5
 -0.0006679998183235804    2    1   13    6
 -0.0003054854049645024    2    1   13    7
 0.0002300637774486069    2    1   13    8
 0.0001720580928506246    2    1   13    9
 0.0008064334897193557    2    1   13   10
 0.0001245388166352225    2    1   13   11
 -0.0003305257978429624    2    1   13   12
 0.007814870320993705    2    1   13   13
 -0.000616344088607556    2    1   14    1
 0.002098772780340584    2    1   14    2
 0.0004839161512097451    2    1   14    3
 0.0004151235660472779    2    1   14    4
 -0.0002125789692081126    2    1   14    5
 -0.0008349946265314481    2    1   14    6
 0.0004798490863528256    2    1   14    7
 -0.000369291969091204    2    1   14    8
 -0.001019275745760231    2    1   14    9
 -0.0004646845377288836    2    1   14   10
 0.0005588485319787347    2    1   14   11
 0.0001903042761026573    2    1   14   12
 -0.001595918290641257    2    1   14   13
 0.008043373556383416    2    1   14   14
 0.001559750996121629    2    1   15    1
 -1.190682105644808e-05    2    1   15    2
 -0.0008011764412152497    2    1   15    3
 0.0008803756504706325    2    1   15    4
 0.000958555676163812    2    1   15    5
 -0.0007276373842955474    2    1   15    6
 -0.0001069671708641638    2    1   15    7
 0.0001555187623693412    2    1   15    8
 0.002606774656454888    2    1   15    9
 -0.002018800514666965    2    1   15   10
 -0.000255039324055391    2    1   15   11
 0.001103908788778265    2    1   15   12
 -0.0007450270820289294    2    1   15   13
 0.0001808750374092183    2    1   15   14
 0.006007023902324131    2    1   15   15
 0.003041197218176105    2    1   16    1
 0.0001290490968213556    2    1   16    2
 -0.003471697132708587    2    1   16    3
 0.003573596567537419    2    1   16    4
 0.003332122356881969    2    1   16    5
 0.001122642586451085    2    1   16    6
 -0.004014133816475404    2    1   16    7
 -0.001954157856044801    2    1   16    8
 -0.002633888034082854    2    1   16    9
 -0.001253915786877886    2    1   16   10
 -0.0002651782004549792    2    1   16   11
 0.001031669555929864    2    1   16   12
 0.0003240913489904083    2    1   16   13
 0.0004286506257475883    2    1   16   14
 0.0008142915940896858    2    1   16   15
 0.01107620307153063    2    1   16   16
 0.003776549750527158    2    1   17    1
 -0.004559456666687684    2    1   17    2
 -0.008828033594349955    2    1   17    3
 0.0006519747309847699    2    1   17    4
 -3.998162209569457e-05    2    1   17    5
 -0.006728222685470043    2    1   17    6
 -0.0007290796072283151    2    1   17    7
 -0.001703147228440793    2    1   17    8
 0.001119211581613228    2    1   17    9
 -0.0001792190590499228    2    1   17   10
 0.002991251705160099    2    1   17   11
 0.001305441639329189    2    1   17   12
 -0.001256329838001506    2    1   17   13
 0.001018267246646549    2    1   17   14
 -0.0001599057909233473    2    1   17   15
 -0.000846642956884563    2    1   17   16
 0.003942631796015904    2    1   17   17
 0.0001103349437047967    2    1   18    1
 -0.0006693620931615412    2    1   18    2
 2.581437816901744e-05    2    1   18    3
 -0.0009039688481994196    2    1   18    4
 -0.001940116100720383    2    1   18    5
 -0.001231013329863786    2    1   18    6
 0.0004486094516511186    2    1   18    7
 0.0001038524403631842    2    1   18    8
 0.001826483018918297    2    1   18    9
 0.0002958900524395475    2    1   18   10
 0.0003046294705635704    2    1   18   11
 -0.0002783261879235674    2    1   18   12
 0.0007644805953218901    2    1   18   13
 -0.0003354749252297332    2    1   18   14
 -0.001302679655985953    2    1   18   15
 -0.00120058243799579    2    1   18   16
 -0.001379136383297206    2    1   18   17
 0.008780031732690848    2    1   18   18
 0.0006866333018997413    2    1   19    1
 -0.005338998488490059    2    1   19    2
 0.0002786507707878392    2    1   19    3
 -0.001952171793672301    2    1   19    4
 0.001118308685468873    2    1   19    5
 0.0003495022376902969    2    1   19    6
 -0.002405422084552734    2    1   19    7
 -0.0007018539196664531    2    1   19    8
 3.917453217330235e-05    2    1   19    9
 -0.0008626287189527978    2    1   19   10
 -0.00024602514958586    2    1   19   11
 0.001355687389913325    2    1   19   12
 -0.0001398751022296797    2    1   19   13
 0.001501420283971363    2    1   19   14
 -0.001043107291493997    2    1   19   15
 0.0005714145767557963    2    1   19   16
 -0.001570516763849157    2    1   19   17
 -0.003279864186995795    2    1   19   18
 0.00566045490336715    2    1   19   19
 -0.0002027074515451123    2    1   20    1
 0.00105097389799356    2    1   20    2
 0.0009905127202499049    2    1   20    3
 -0.001040388423766059    2    1   20    4
 -0.002176457174467637    2    1   20    5
 -0.003474446650768059    2    1   20    6
 -4.131791531735794e-05    2    1   20    7
 -0.0008229498743781609    2    1   20    8
 0.001330611477134762    2    1   20    9
 -0.0007744212279644793    2    1   20   10
 0.001012014372117916    2    1   20   11
 0.00109115413368706    2    1   20   12
 -0.001254203293022067    2    1   20   13
 8.317989508205665e-05    2    1   20   14
 -0.002059429753151809    2    1   20   15
 2.430679053711984e-05    2    1   20   16
 -0.001074040074574484    2    1   20   17
 -0.002452047503826999    2    1   20   18
 -0.0007612686727929396    2    1   20   19
 0.004618483224507269    2    1   20   20
 0.0001020823552587427    2    1   21    1
 0.004390879554932453    2    1   21    2
 0.0002685367025109237    2    1   21    3
 0.001571431815759461    2    1   21    4
 -0.001739777128400073    2    1   21    5
 0.0002848702162017386    2    1   21    6
 -0.000819775600100738    2    1   21    7
 -0.0007930114050546489    2    1   21    8
 -0.0003846755192598781    2    1   21    9
 -5.742844055538638e-05    2    1   21   10
 -0.0002942225375380402    2    1   21   11
 -1.716747762333727e-05    2    1   21   12
 0.001529365476881746    2    1   21   13
 -0.001228722158751369    2    1   21   14
 -0.0001440869780240033    2    1   21   15
 0.001826395392029139    2    1   21   16
 9.411102933560719e-05    2    1   21   17
 0.0009669514176042782    2    1   21   18
 0.001149612846622378    2    1   21   19
 -0.001228530895790297    2    1   21   20
 0.012161946005147    2    1   21   21
 0.0003988303838438245    2    1   22    1
 0.00060589592010227    2    1   22    2
 -0.0007148835088144968    2    1   22    3
 0.002746025549089026    2    1   22    4
 0.003356144213416177    2    1   22    5
 -0.002148544190282998    2    1   22    6
 -1.37743255055339e-05    2    1   22    7
 -0.0008243563818972543    2    1   22    8
 -0.0007500147887332137    2    1   22    9
 0.0009802286033072658    2    1   22   10
 0.001731135196479366    2    1   22   11
 -0.0001738680240946044    2    1   22   12
 4.910946700811121e-05    2    1   22   13
 0.0007385640112479759    2    1   22   14
 0.002467088622007612    2    1   22   15
 -3.614569249047437e-05    2    1   22   16
 -0.002814615635004129    2    1   22   17
 -0.0008321645936307372    2    1   22   18
 -0.0003905264034067862    2    1   22   19
 0.001583344668253788    2    1   22   20
 0.0005954212343344365    2    1   22   21
 0.001539049939943119    2    1   22   22
 0.2379840876318509    2    2    1    1
 -0.01028689797767774    2    2    2    1
 0.2641629368378295    2    2    2    2
 -0.04002294042585854    2    2    3    1
 0.01382945428591583    2    2    3    2
 0.2345017706559969    2    2    3    3
 0.01058782298606179    2    2    4    1
 0.02943129470028627    2    2    4    2
 -0.005164477839219943    2    2    4    3
 0.2245246471478616    2    2    4    4
 0.01530070151182775    2    2    5    1
 -0.008082518277196343    2    2    5    2
 -0.00510588179825323    2    2    5    3
 0.01523510494055439    2    2    5    4
 0.2235545262746308    2    2    5    5
 -0.005096351433671509    2    2    6    1
 0.02356196394121252    2    2    6    2
 0.01431909493532156    2    2    6    3
 0.01093140684369569    2    2    6    4
 -0.00853004932370586    2    2    6    5
 0.2183730001617566    2    2    6    6
 -0.001987164635972897    2    2    7    1
 -0.002152148539246983    2    2    7    2
 0.009901165457866427    2    2    7    3
 -0.02441627335830935    2    2    7    4
 -0.01648612569443574    2    2    7    5
 -0.002904882833141479    2    2    7    6
 0.1969662572984203    2    2    7    7
 -0.001026647142266812    2    2    8    1
 0.007239995318044557    2    2    8    2
 0.009717689230984554    2    2    8    3
 0.001862000444250424    2    2    8    4
 -0.005367963027617407    2    2    8    5
 -0.005810012194769755    2    2    8    6
 -0.004058263755298103    2    2    8    7
 0.2009952006425144    2    2    8    8
 0.005299054516354525    2    2    9    1
 -0.0141969582287057    2    2    9    2
 0.005437201213602785    2    2    9    3
 0.005624858737250533    2    2    9    4
 -0.003219603571626268    2    2    9    5
 -0.002237459812340918    2    2    9    6
 0.004474157304673109    2    2    9    7
 0.0062748338792556    2    2    9    8
 0.2391039192692433    2    2    9    9
 -0.005710643429995028    2    2   10    1
 0.004453757848990207    2    2   10    2
 -0.004911931316136406    2    2   10    3
 -0.01440861610696044    2    2   10    4
 0.002577232502651421    2    2   10    5
 -0.003338005764512438    2    2   10    6
 -0.01347909474665831    2    2   10    7
 0.01934301308938026    2    2   10    8
 -0.0004992939404528089    2    2   10    9
 0.2085299783050128    2    2   10   10
 0.002788301459191753    2    2   11    1
 -0.006453977434698716    2    2   11    2
 -0.003593143575747796    2    2   11    3
 -0.001122282234029735    2    2   11    4
 -0.001291385448101559    2    2   11    5
 -0.002524491271751569    2    2   11    6
 0.009860390479294157    2    2   11    7
 -0.01780909486727382    2    2   11    8
 -0.007732124010982611    2    2   11    9
 -0.001044498647514258    2    2   11   10
 0.193952570262808    2    2   11   11
 -0.002233844325473714    2    2   12    1
 -0.007104245644144585    2    2   12    2
 -0.005669636319292489    2    2   12    3
 -0.001867695716015296    2    2   12    4
 -0.0004611335565341562    2    2   12    5
 0.0003749305437208521    2    2   12    6
 0.003969637487587316    2    2   12    7
 0.003676302776778806    2    2   12    8
 0.003698500838296871    2    2   12    9
 -0.004951003051083674    2    2   12   10
 0.006146743264017441    2    2   12   11
 0.1774011540599076    2    2   12   12
 -0.0007838110492963833    2    2   13    1
 -0.0001607464768013516    2    2   13    2
 -0.0004321792290430161    2    2   13    3
 -3.778995193932672e-05    2    2   13    4
 0.001341918490799892    2    2   13    5
 0.00469978869477437    2    2   13    6
 0.002535024050888735    2    2   13    7
 -0.004814753953052218    2    2   13    8
 0.0006748485263429078    2    2   13    9
 0.001529450378846479    2    2   13   10
 -0.001559744632872328    2    2   13   11
 -0.001421789918923263    2    2   13   12
 0.2705075126962275    2    2   13   13
 -0.001165197942915971    2    2   14    1
 -4.189664005129853e-05    2    2   14    2
 0.0008057299223103963    2    2   14    3
 -0.001104116749168424    2    2   14    4
 0.001765788655730677    2    2   14    5
 0.0005476526867129864    2    2   14    6
 0.0002983596610061219    2    2   14    7
 0.0004889507273317602    2    2   14    8
 -0.000384547768765932    2    2   14    9
 0.0004114395482106019    2    2   14   10
 0.000720168037653325    2    2   14   11
 -2.582371852981273e-05    2    2   14   12
 0.001223668593559663    2    2   14   13
 0.2698707575309745    2    2   14   14
 0.0009833161241255908    2    2   15    1
 0.0005601450245833161    2    2   15    2
 0.0008469202006614966    2    2   15    3
 0.0004471853264443447    2    2   15    4
 -0.001017988070737153    2    2   15    5
 -0.0005649678740374459    2    2   15    6
 -0.003585767963866601    2    2   15    7
 -0.001560049535613172    2    2   15    8
 0.001088666541613505    2    2   15    9
 0.002038395096429819    2    2   15   10
 -0.002347905402670414    2    2   15   11
 0.005479927752268196    2    2   15   12
 -0.0001535718912219711    2    2   15   13
 -0.001060754314764397    2    2   15   14
 0.2706592967703962    2    2   15   15
 -0.0005163905507593651    2    2   16    1
 0.002122876089087111    2    2   16    2
 -0.002079127489288705    2    2   16    3
 0.00154503900484604    2    2   16    4
 0.001741609084561332    2    2   16    5
 0.0009762339185931508    2    2   16    6
 0.008186490909354683    2    2   16    7
 0.003440625025706481    2    2   16    8
 -0.001353486516804688    2    2   16    9
 0.0007487849735129478    2    2   16   10
 -0.00104114058959791    2    2   16   11
 -0.001377162370690185    2    2   16   12
 0.000612991340682496    2    2   16   13
 -0.0001010314135585856    2    2   16   14
 0.0006220618425947865    2    2   16   15
 0.2694656515423676    2    2   16   16
 -0.001970033112230483    2    2   17    1
 0.004285570381987945    2    2   17    2
 0.004025369203544397    2    2   17    3
 0.001480439819409599    2    2   17    4
 0.0008430501938742458    2    2   17    5
 -0.006218243867554481    2    2   17    6
 -0.001053810651256453    2    2   17    7
 -0.0009967702651000126    2    2   17    8
 -0.0005213412964491437    2    2   17    9
 -5.86736966382259e-05    2    2   17   10
 0.001061533929253939    2    2   17   11
 -0.0003896883585817956    2    2   17   12
 0.0008459493649570168    2    2   17   13
 -6.279520533983037e-06    2    2   17   14
 0.000225008141805966    2    2   17   15
 0.001962102270222955    2    2   17   16
 0.271666975054577    2    2   17   17
 0.001661603278241488    2    2   18    1
 -0.001036628830567322    2    2   18    2
 -0.003008993172525147    2    2   18    3
 0.001985282881632187    2    2   18    4
 -0.0005788528486787521    2    2   18    5
 -0.0005970383609613585    2    2   18    6
 -0.002246250203348254    2    2   18    7
 -0.003944518820084417    2    2   18    8
 0.002210961034037949    2    2   18    9
 0.0004915040118314765    2    2   18   10
 -0.0007020613647492087    2    2   18   11
 0.000486793049319425    2    2   18   12
 -0.003831039557677704    2    2   18   13
 0.004462899683796527    2    2   18   14
 -0.0007491056126777451    2    2   18   15
 0.003317387167468444    2    2   18   16
 -0.001992086326820441    2    2   18   17
 0.2621003047844174    2    2   18   18
 -0.0005931364533998879    2    2   19    1
 -0.0008609717609053258    2    2   19    2
 -0.001328980857602102    2    2   19    3
 0.001131407427955038    2    2   19    4
 -0.001337793502987537    2    2   19    5
 -0.003457116505877992    2    2   19    6
 0.001213627744567492    2    2   19    7
 0.00374298415352395    2    2   19    8
 -0.0003230251383253792    2    2   19    9
 0.000735540913217748    2    2   19   10
 -0.001785159773647875    2    2   19   11
 0.002133600073849073    2    2   19   12
 0.002352600914924119    2    2   19   13
 0.001972379599531578    2    2   19   14
 -0.002321526121885311    2    2   19   15
 -0.003650721043413743    2    2   19   16
 -0.0004400085643430915    2    2   19   17
 0.001637195799308846    2    2   19   18
 0.2661218843505333    2    2   19   19
 -0.0003089278171553849    2    2   20    1
 -0.001593167311032294    2    2   20    2
 0.002895331504871205    2    2   20    3
 -0.001377415913543362    2    2   20    4
 0.003521137010604023    2    2   20    5
 -0.0008725478289301059    2    2   20    6