 &FCI NORB=  10,NELEC= 6,MS2=6,
  ORBSYM=1,1,1,1,1,1,1,1,1,1,
  ISYM=1,
 &END
 0.5044388061405385    1    1    1    1
 1.423279857734903e-05    1    1    2    1
 0.4775705781985699    1    1    2    2
 4.180619213687989e-05    1    1    3    1
 2.484195913635138e-05    1    1    3    2
 0.4776467218983409    1    1    3    3
 -5.775714147396407e-05    1    1    4    1
 -7.373840948872218e-05    1    1    4    2
 -0.0001509536467212813    1    1    4    3
 0.4747873799231935    1    1    4    4
 3.902583743497764e-05    1    1    5    1
 0.0001386566569302246    1    1    5    2
 -0.000104496177742208    1    1    5    3
 -4.384883506258074e-07    1    1    5    4
 0.4747330903672342    1    1    5    5
 0.0001821986568453566    1    1    6    1
 -4.511506159688922e-05    1    1    6    2
 -0.0001763515552853894    1    1    6    3
 -4.215539182975735e-05    1    1    6    4
 -6.07899605907071e-06    1    1    6    5
 0.5162550807158834    1    1    6    6
 4.460324665484858e-05    1    1    7    1
 7.982889457096032e-07    1    1    7    2
 -2.416699141167835e-05    1    1    7    3
 0.006292564203761819    1    1    7    4
 0.00083405457090303    1    1    7    5
 -7.920141333725194e-06    1    1    7    6
 0.4755901798098358    1    1    7    7
 2.10177646739514e-05    1    1    8    1
 -2.551529233717434e-05    1    1    8    2
 -1.763466482515008e-06    1    1    8    3
 0.0008584371965053967    1    1    8    4
 -0.006286708335563654    1    1    8    5
 -2.168852899358195e-06    1    1    8    6
 5.91662853107723e-05    1    1    8    7
 0.4756881638611837    1    1    8    8
 1.019343387426981e-06    1    1    9    1
 0.004038805279584824    1    1    9    2
 0.006653929622351306    1    1    9    3
 -1.034290037107676e-06    1    1    9    4
 9.98900674235062e-07    1    1    9    5
 5.126077822925645e-05    1    1    9    6
 -0.0001192355903472887    1    1    9    7
 -1.512457098542346e-05    1    1    9    8
 0.4718977993353795    1    1    9    9
 2.537739855901274e-07    1    1   10    1
 0.006652675569758775    1    1   10    2
 -0.00402603651701378    1    1   10    3
 -3.155538333999038e-06    1    1   10    4
 -6.671851406138241e-06    1    1   10    5
 3.038841666569431e-06    1    1   10    6
 4.708749655837409e-05    1    1   10    7
 -0.0001248150035522431    1    1   10    8
 6.731600023884301e-05    1    1   10    9
 0.4718779671999171    1    1   10   10
 1.423279857733085e-05    2    1    1    1
 0.0163287625047747    2    1    2    1
 2.01747235902397e-05    2    1    2    2
 5.523011771520136e-06    2    1    3    1
 4.711103009913048e-06    2    1    3    2
 1.340374478360235e-05    2    1    3    3
 -5.535729442955994e-06    2    1    4    1
 0.0002975664527150769    2    1    4    2
 0.0005055510131536    2    1    4    3
 1.883493025593165e-05    2    1    4    4
 1.243055451818818e-05    2    1    5    1
 -0.0004521170869369938    2    1    5    2
 0.0001877873724551736    2    1    5    3
 -5.094731407651571e-06    2    1    5    4
 1.512717088185542e-05    2    1    5    5
 -0.0005438016615988736    2    1    6    1
 1.49631805259066e-05    2    1    6    2
 -1.702576586207979e-06    2    1    6    3
 -0.008844611626395292    2    1    6    4
 0.01415740366764183    2    1    6    5
 1.410742769677651e-05    2    1    6    6
 2.386137812126745e-06    2    1    7    1
 -0.001511315306553783    2    1    7    2
 0.001762801387067046    2    1    7    3
 -2.529677913682443e-06    2    1    7    4
 -3.299579735638566e-06    2    1    7    5
 0.0009474065702756261    2    1    7    6
 7.385372943069435e-06    2    1    7    7
 8.813056022721759e-06    2    1    8    1
 -0.001639985573070333    2    1    8    2
 -0.001567028126915554    2    1    8    3
 5.535411733131362e-06    2    1    8    4
 -1.051290943967017e-06    2    1    8    5
 0.00269824270853325    2    1    8    6
 1.382036485095709e-05    2    1    8    7
 1.889569286780457e-05    2    1    8    8
 -0.001633189337205162    2    1    9    1
 -1.109485119859194e-06    2    1    9    2
 -9.350253043353263e-07    2    1    9    3
 0.000175550517214665    2    1    9    4
 0.002051100192346233    2    1    9    5
 -2.700315615950239e-06    2    1    9    6
 0.002424822445281075    2    1    9    7
 -0.0063008661287011    2    1    9    8
 1.446151496779892e-05    2    1    9    9
 -0.002641035866795363    2    1   10    1
 5.148509346461335e-07    2    1   10    2
 1.099417443019522e-06    2    1   10    3
 -0.00206893621310201    2    1   10    4
 9.517147652794453e-05    2    1   10    5
 -2.684052329375563e-06    2    1   10    6
 -0.00656171761093792    2    1   10    7
 -0.001427401787277816    2    1   10    8
 -9.254199858161618e-06    2    1   10    9
 9.331007587939618e-06    2    1   10   10
 0.47757057819857    2    2    1    1
 2.017472359029442e-05    2    2    2    1
 0.5168667310346918    2    2    2    2
 3.975390192678465e-05    2    2    3    1
 3.049801980632149e-05    2    2    3    2
 0.4846093946862323    2    2    3    3
 -0.0001766393909842244    2    2    4    1
 -7.687914325123536e-05    2    2    4    2
 -0.0001450827378833202    2    2    4    3
 0.4912190773167919    2    2    4    4
 2.870580687221388e-05    2    2    5    1
 0.0001493533017902184    2    2    5    2
 -0.000105009498945488    2    2    5    3
 -0.01406552941260018    2    2    5    4
 0.505251053614005    2    2    5    5
 0.0001764867263497416    2    2    6    1
 2.761327048049405e-05    2    2    6    2
 2.081567383739841e-05    2    2    6    3
 -4.35853782266489e-05    2    2    6    4
 -2.286868851983405e-06    2    2    6    5
 0.4886375018980849    2    2    6    6
 0.003087462745148058    2    2    7    1
 2.403579567548441e-06    2    2    7    2
 -1.266367871505958e-05    2    2    7    3
 -0.005846543932471549    2    2    7    4
 -0.004682897029503904    2    2    7    5
 -5.446248259973792e-07    2    2    7    6
 0.4834046379345137    2    2    7    7
 0.003384799726980991    2    2    8    1
 -2.733462807489432e-05    2    2    8    2
 -6.94190532948158e-06    2    2    8    3
 0.001551974028223327    2    2    8    4
 0.0002313058858417839    2    2    8    5
 -2.049969298911977e-06    2    2    8    6
 -0.002556563792618548    2    2    8    7
 0.4760906094739803    2    2    8    8
 1.544122356737797e-06    2    2    9    1
 0.0007027734082296613    2    2    9    2
 -0.004975372653312072    2    2    9    3
 -6.583237618727076e-06    2    2    9    4
 1.767479260793272e-06    2    2    9    5
 -0.003820784335325158    2    2    9    6
 -0.0001131982054027718    2    2    9    7
 -1.340372221942606e-05    2    2    9    8
 0.4785587667880012    2    2    9    9
 6.119085879548564e-06    2    2   10    1
 0.001260961143530333    2    2   10    2
 0.003132183481773214    2    2   10    3
 -6.28584599396608e-06    2    2   10    4
 6.555740913486467e-06    2    2   10    5
 -0.002452984728145756    2    2   10    6
 4.310652733200223e-05    2    2   10    7
 -0.0001156643489060635    2    2   10    8
 -0.004132215274914417    2    2   10    9
 0.4743808061826184    2    2   10   10
 4.180619213704465e-05    3    1    1    1
 5.523011771521687e-06    3    1    2    1
 3.975390192688694e-05    3    1    2    2
 0.01632353751700128    3    1    3    1
 -1.494119971534756e-06    3    1    3    2
 4.384699010534909e-05    3    1    3    3
 -1.13902573033192e-05    3    1    4    1
 0.0008610962796432301    3    1    4    2
 0.001383558527771025    3    1    4    3
 4.055847408396317e-05    3    1    4    4
 -9.973706618685542e-06    3    1    5    1
 -0.001315501066285608    3    1    5    2
 0.0008571374803450601    3    1    5    3
 1.986365661965862e-06    3    1    5    4
 4.088992841794125e-05    3    1    5    5
 -0.001627537131777803    3    1    6    1
 -2.012730639047887e-06    3    1    6    2
 1.492188121376195e-05    3    1    6    3
 -0.01413757787404349    3    1    6    4
 -0.008834527837131552    3    1    6    5
 4.512571624606282e-05    3    1    6    6
 7.437916060150822e-06    3    1    7    1
 0.001657855359957779    3    1    7    2
 0.001578802778832839    3    1    7    3
 -5.772137931456756e-06    3    1    7    4
 2.045191708265178e-06    3    1    7    5
 0.002708437371330897    3    1    7    6
 3.010494737663047e-05    3    1    7    7
 -2.993773682548874e-06    3    1    8    1
 -0.001407783413194981    3    1    8    2
 0.001661590484814436    3    1    8    3
 -6.786560830661838e-07    3    1    8    4
 -3.441219739734536e-06    3    1    8    5
 -0.000925373722946122    3    1    8    6
 -1.093803049162882e-05    3    1    8    7
 5.30168558084336e-05    3    1    8    8
 -0.00263000381572066    3    1    9    1
 -1.90789855388537e-06    3    1    9    2
 -1.959210998714942e-06    3    1    9    3
 0.002012176168601338    3    1    9    4
 -0.0001328827255473172    3    1    9    5
 -4.101145054973603e-06    3    1    9    6
 0.007960403484212727    3    1    9    7
 0.002325014843035263    3    1    9    8
 5.139359463840117e-05    3    1    9    9
 0.001621595161839303    3    1   10    1
 1.109739010975494e-06    3    1   10    2
 2.635174583250387e-06    3    1   10    3
 0.0001240325530700864    3    1   10    4
 0.002002807707406858    3    1   10    5
 2.527508488530411e-06    3    1   10    6
 0.001547805049624167    3    1   10    7
 -0.00497529302713473    3    1   10    8
 -2.67423725573742e-06    3    1   10    9
 3.469563635859667e-05    3    1   10   10
 2.484195913644879e-05    3    2    1    1
 4.711103009919455e-06    3    2    2    1
 3.049801980636346e-05    3    2    2    2
 -1.494119971545609e-06    3    2    3    1
 0.01615550961989796    3    2    3    2
 2.676207503825003e-05    3    2    3    3
 0.0001203198783726364    3    2    4    1
 -9.804989245765072e-07    3    2    4    2
 8.40856771590375e-06    3    2    4    3
 0.01407531791625514    3    2    4    4
 9.469953902661643e-05    3    2    5    1
 -1.2246928798473e-05    3    2    5    2
 1.183695448687105e-05    3    2    5    3
 -0.00704562649991362    3    2    5    4
 -0.01401927865292789    3    2    5    5
 -7.885834703476466e-06    3    2    6    1
 5.582072038623996e-06    3    2    6    2
 -5.134095220103904e-06    3    2    6    3
 -1.285204064434753e-06    3    2    6    4
 5.553010385191858e-06    3    2    6    5
 2.635895861123576e-05    3    2    6    6
 -0.00344634723342191    3    2    7    1
 -4.835808622758809e-06    3    2    7    2
 -8.872661620378224e-07    3    2    7    3
 0.00313487050834478    3    2    7    4
 -0.002810063093879658    3    2    7    5
 -1.043419931806661e-06    3    2    7    6
 -0.002399189261535459    3    2    7    7
 0.003041298660222849    3    2    8    1
 -2.743481484436691e-07    3    2    8    2
 -5.594890415146461e-06    3    2    8    3
 0.002832874594111266    3    2    8    4
 0.003139779573378594    3    2    8    5
 3.865510246693438e-06    3    2    8    6
 -0.003613864353855794    3    2    8    7
 0.002450667327668412    3    2    8    8
 -2.809629160300738e-06    3    2    9    1
 0.003132020686857574    3    2    9    2
 0.001927003512102644    3    2    9    3
 1.694772010937961e-06    3    2    9    4
 -6.847218931830792e-08    3    2    9    5
 0.002585007414091312    3    2    9    6
 1.021402595099049e-05    3    2    9    7
 5.109502558066901e-06    3    2    9    8
 -0.003964362720501378    3    2    9    9
 2.886835983999918e-06    3    2   10    1
 -0.001919617295833773    3    2   10    2
 0.003179199948444305    3    2   10    3
 4.513949909366746e-07    3    2   10    4
 3.783963625034804e-06    3    2   10    5
 -0.003804350478451719    3    2   10    6
 -2.732903024206405e-06    3    2   10    7
 8.285152937894101e-06    3    2   10    8
 -0.002091067411716026    3    2   10    9
 0.004013191397852812    3    2   10   10
 0.4776467218983412    3    3    1    1
 1.340374478369281e-05    3    3    2    1
 0.4846093946862324    3    3    2    2
 4.384699010520111e-05    3    3    3    1
 2.676207503830777e-05    3    3    3    2
 0.516975719092835    3    3    3    3
 0.0002526590902813045    3    3    4    1
 -6.49740772551932e-05    3    3    4    2
 -0.0001565974757821757    3    3    4    3
 0.5053496795209262    3    3    4    4
 8.466871182254494e-05    3    3    5    1
 0.0001359763020464486    3    3    5    2
 -0.0001155908341817446    3    3    5    3
 0.01403463591681828    3    3    5    4
 0.4912204831434728    3    3    5    5
 0.0001749385356989594    3    3    6    1
 1.161516618495105e-05    3    3    6    2
 1.256748363295097e-06    3    3    6    3
 -4.48841251974745e-05    3    3    6    4
 -1.002645880352896e-05    3    3    6    5
 0.4887180759745659    3    3    6    6
 -0.003047802622840173    3    3    7    1
 3.843265154360461e-06    3    3    7    2
 -2.560080838165549e-05    3    3    7    3
 -0.0001959592356262793    3    3    7    4
 0.00156848014097057    3    3    7    5
 -2.996093776889169e-06    3    3    7    6
 0.4762853928232467    3    3    7    7
 -0.003344730060401512    3    3    8    1
 -9.852483843091729e-06    3    3    8    2
 -4.949419200421523e-07    3    3    8    3
 -0.004699900299682121    3    3    8    4
 0.005925786246518004    3    3    8    5
 -8.544991462832833e-06    3    3    8    6
 0.002546550720708386    3    3    8    7
 0.4832848541009128    3    3    8    8
 -6.724795436210456e-06    3    3    9    1
 -0.003160372789346924    3    3    9    2
 0.001284575648801009    3    3    9    3
 -7.887467424551644e-06    3    3    9    4
 4.203126942578015e-06    3    3    9    5
 0.003860966334089346    3    3    9    6
 -0.0001116771310011096    3    3    9    7
 -1.455306909591118e-05    3    3    9    8
 0.4745955749341658    3    3    9    9
 6.620842503124724e-07    3    3   10    1
 -0.005086474203155905    3    3   10    2
 -0.0007098243981749124    3    3   10    3
 -4.043484008686226e-06    3    3   10    4
 6.731100249834016e-06    3    3   10    5
 0.002467662868082885    3    3   10    6
 4.498902181693343e-05    3    3   10    7
 -0.0001154407815972319    3    3   10    8
 0.004030958391563952    3    3   10    9
 0.4784184531923319    3    3   10   10
 -5.775714147399967e-05    4    1    1    1
 -5.535729442954947e-06    4    1    2    1
 -0.0001766393909841623    4    1    2    2
 -1.139025730333376e-05    4    1    3    1
 0.0001203198783726358    4    1    3    2
 0.0002526590902812885    4    1    3    3
 0.01650991607444433    4    1    4    1
 2.199228280186458e-05    4    1    4    2
 3.462280522056428e-05    4    1    4    3
 -8.265063416765736e-05    4    1    4    4
 -6.634115985954379e-06    4    1    5    1
 -3.278148646227445e-05    4    1    5    2
 1.964278514023824e-05    4    1    5    3
 -2.759083163323364e-05    4    1    5    4
 -4.148246968401144e-05    4    1    5    5
 -3.93088864260447e-05    4    1    6    1
 -0.008907392194625607    4    1    6    2
 -0.01422114708935255    4    1    6    3
 1.620463564870845e-05    4    1    6    4
 2.439391633663186e-06    4    1    6    5
 -0.0002530340641410429    4    1    6    6
 -0.002941403791345224    4    1    7    1
 -2.792682360523952e-06    4    1    7    2
 -4.277739444790795e-06    4    1    7    3
 0.002043024357288038    4    1    7    4
 0.0005972743396820813    4    1    7    5
 -8.122048437672433e-06    4    1    7    6
 0.007006700586114383    4    1    7    7
 -0.0007948094716205324    4    1    8    1
 5.906920811717717e-06    4    1    8    2
 2.610594987065383e-07    4    1    8    3
 -0.0005601587536050576    4    1    8    4
 0.001973635159135106    4    1    8    5
 -2.942354458454729e-06    4    1    8    6
 -0.000127205567762214    4    1    8    7
 -0.007116066511922174    4    1    8    8
 3.549872230904801e-06    4    1    9    1
 1.947072804207333e-05    4    1    9    2
 0.002321673864762216    4    1    9    3
 -4.810539637610792e-06    4    1    9    4
 6.02339169337398e-07    4    1    9    5
 0.003679316729817193    4    1    9    6
 3.402390366741193e-05    4    1    9    7
 8.114807329500057e-06    4    1    9    8
 0.005889613047205676    4    1    9    9
 -8.023226050227061e-07    4    1   10    1
 -0.002267279766461471    4    1   10    2
 1.659761411252933e-06    4    1   10    3
 2.678459731439608e-06    4    1   10    4
 1.8130218122932e-06    4    1   10    5
 0.0001921318495072451    4    1   10    6
 -1.049263588973763e-05    4    1   10    7
 3.968809859530733e-05    4    1   10    8
 -0.003492867074142508    4    1   10    9
 -0.006000066486276592    4    1   10   10
 -7.373840948866087e-05    4    2    1    1
 0.0002975664527150463    4    2    2    1
 -7.687914325134993e-05    4    2    2    2
 0.0008610962796432388    4    2    3    1
 -9.804989245479194e-07    4    2    3    2
 -6.497407725489496e-05    4    2    3    3
 2.19922828018532e-05    4    2    4    1
 0.1011260833637717    4    2    4    2
 0.1374969722394971    4    2    4    3
 -9.02014434853889e-05    4    2    4    4
 -7.410021134449692e-06    4    2    5    1
 -0.1374912926777988    4    2    5    2
 0.06988611613064023    4    2    5    3
 -8.914475584703983e-06    4    2    5    4
 -8.532501630160212e-05    4    2    5    5
 -0.150597354160973    4    2    6    1
 -1.049926395952351e-05    4    2    6    2
 -2.353120071855408e-05    4    2    6    3
 0.0009791949101790271    4    2    6    4
 -3.540375831470535e-05    4    2    6    5
 -0.0001026447538580421    4    2    6    6
 7.957576108878334e-06    4    2    7    1
 0.003136598918071179    4    2    7    2
 0.001001648686035932    4    2    7    3
 -1.226223812980331e-05    4    2    7    4
 7.283562412469269e-06    4    2    7    5
 0.001309431130121681    4    2    7    6
 -0.0002668596867733718    4    2    7    7
 -5.717658063245696e-06    4    2    8    1
 0.002965065449046283    4    2    8    2
 0.004189241614581219    4    2    8    3
 -9.491994913453263e-06    4    2    8    4
 -3.187434106595446e-06    4    2    8    5
 -0.004202973947173142    4    2    8    6
 1.137910410811664e-05    4    2    8    7
 -0.0003782182187962403    4    2    8    8
 -0.0001763617243472119    4    2    9    1
 6.649763698552702e-06    4    2    9    2
 2.953555774346406e-06    4    2    9    3
 -0.004693534591675253    4    2    9    4
 -0.004479652056439854    4    2    9    5
 8.208284569926984e-06    4    2    9    6
 0.1442774642154876    4    2    9    7
 0.03375771000925132    4    2    9    8
 0.0001701533443854356    4    2    9    9
 0.004292832293692413    4    2   10    1
 -1.196310791913328e-05    4    2   10    2
 -3.500270633794721e-07    4    2   10    3
 0.001387266493632607    4    2   10    4
 0.008560308342318435    4    2   10    5
 -1.302599756794948e-05    4    2   10    6
 -0.04201133061634154    4    2   10    7
 0.1466412150120044    4    2   10    8
 3.124104568903968e-05    4    2   10    9
 0.0002673786090312785    4    2   10   10
 -0.0001509536467213187    4    3    1    1
 0.0005055510131535757    4    3    2    1
 -0.0001450827378833693    4    3    2    2
 0.001383558527771071    4    3    3    1
 8.408567715975755e-06    4    3    3    2
 -0.0001565974757819325    4    3    3    3
 3.462280522055368e-05    4    3    4    1
 0.1374969722394972    4    3    4    2
 0.2367078845030174    4    3    4    3
 -0.0001828360461131658    4    3    4    4
 -1.489539191577337e-06    4    3    5    1
 -0.2054848143383218    4    3    5    2
 0.1374563715113818    4    3    5    3
 -3.479109502808582e-05    4    3    5    4
 -0.0001779608593385984    4    3    5    5
 -0.2423805985823863    4    3    6    1
 -7.943648278160767e-06    4    3    6    2
 -4.38242561427909e-05    4    3    6    3
 0.001412833680979474    4    3    6    4
 0.000301236749602728    4    3    6    5
 -0.0001995105323991958    4    3    6    6
 1.296064917878852e-05    4    3    7    1
 0.0004724882105241489    4    3    7    2
 0.006924381878710572    4    3    7    3
 -2.504548681039265e-05    4    3    7    4
 3.633263753020294e-07    4    3    7    5
 0.004306308789135506    4    3    7    6
 -0.000460618874357491    4    3    7    7
 -1.513720517867974e-08    4    3    8    1
 -0.0004358954291819368    4    3    8    2
 0.001484954932800789    4    3    8    3
 2.320289192468445e-06    4    3    8    4
 -1.079593984772787e-05    4    3    8    5
 0.00122833654315625    4    3    8    6
 5.252360858349541e-06    4    3    8    7
 -0.0006508369410810793    4    3    8    8
 -0.004323757806180719    4    3    9    1
 9.026029863648699e-06    4    3    9    2
 3.357933521448204e-06    4    3    9    3
 -0.007575199960522998    4    3    9    4
 -0.0008348908788668222    4    3    9    5
 1.742239820178187e-05    4    3    9    6
 0.2299676846822563    4    3    9    7
 0.06218719934497653    4    3    9    8
 0.0002398133721824637    4    3    9    9
 -0.0001340049548231272    4    3   10    1
 -1.587052833320868e-05    4    3   10    2
 -2.96861942332063e-07    4    3   10    3
 -0.004689959206980579    4    3   10    4
 0.01342821865628841    4    3   10    5
 -1.518944548263509e-05    4    3   10    6
 -0.05970496302245434    4    3   10    7
 0.2379652391371583    4    3   10    8
 6.462713827756701e-05    4    3   10    9
 0.0003976493097421195    4    3   10   10
 0.4747873799231935    4    4    1    1
 1.8834930255872e-05    4    4    2    1
 0.4912190773167922    4    4    2    2
 4.055847408398546e-05    4    4    3    1
 0.01407531791625508    4    4    3    2
 0.5053496795209268    4    4    3    3
 -8.265063416769668e-05    4    4    4    1
 -9.020144348567914e-05    4    4    4    2
 -0.000182836046113279    4    4    4    3
 0.5113140800918228    4    4    4    4
 8.88769849579857e-06    4    4    5    1
 0.000159960090783364    4    4    5    2
 -0.0001234872074786959    4    4    5    3
 -1.609216844323232e-05    4    4    5    4
 0.4805232577043919    4    4    5    5
 0.0002061619722067149    4    4    6    1
 8.675529697106657e-05    4    4    6    2
 0.0003352192748109607    4    4    6    3
 -4.48178845390302e-05    4    4    6    4
 -2.971206733356045e-06    4    4    6    5
 0.4857274285183337    4    4    6    6
 -0.004217284063984602    4    4    7    1
 -9.539253549963409e-07    4    4    7    2
 -2.417361588729322e-05    4    4    7    3
 8.1873860363454e-05    4    4    7    4
 -0.002612212226140805    4    4    7    5
 -3.759665569655159e-06    4    4    7    6
 0.4735954798550884    4    4    7    7
 0.001122081925193669    4    4    8    1
 -1.404174953901492e-05    4    4    8    2
 -6.353365037393549e-06    4    4    8    3
 -0.0008880647526094889    4    4    8    4
 0.007128620589398101    4    4    8    5
 -3.922989494730583e-06    4    4    8    6
 -0.002079678756713576    4    4    8    7
 0.4811385494091701    4    4    8    8
 -5.552207477471097e-06    4    4    9    1
 0.0001147313109146301    4    4    9    2
 0.0003764570473551647    4    4    9    3
 -6.522496590100594e-06    4    4    9    4
 3.327456940511295e-06    4    4    9    5
 0.003769219513480497    4    4    9    6
 -0.000139458636498812    4    4    9    7
 -1.974547186098398e-05    4    4    9    8
 0.4697358526686335    4    4    9    9
 5.031880402999615e-06    4    4   10    1
 -0.005214741109796452    4    4   10    2
 0.003020589795924089    4    4   10    3
 -2.904761117582001e-06    4    4   10    4
 8.31003899492217e-06    4    4   10    5
 -0.002112413229586859    4    4   10    6
 5.119382482077506e-05    4    4   10    7
 -0.0001452945206125621    4    4   10    8
 -2.885965875928465e-05    4    4   10    9
 0.4785893359144719    4    4   10   10
 3.902583743497145e-05    5    1    1    1
 1.243055451819831e-05    5    1    2    1
 2.87058068722629e-05    5    1    2    2
 -9.973706618700121e-06    5    1    3    1
 9.469953902661357e-05    5    1    3    2
 8.466871182244299e-05    5    1    3    3
 -6.634115985951049e-06    5    1    4    1
 -7.41002113447387e-06    5    1    4    2
 -1.489539191567826e-06    5    1    4    3
 8.887698495849027e-06    5    1    4    4
 0.01651182033936986    5    1    5    1
 3.871338908474409e-06    5    1    5    2
 4.096320914801752e-06    5    1    5    3
 1.594343356987474e-05    5    1    5    4
 6.824376782995222e-05    5    1    5    5
 1.017638395766371e-06    5    1    6    1
 0.01423289347967024    5    1    6    2
 -0.008896993300876555    5    1    6    3
 2.594400078446461e-06    5    1    6    4
 1.848886739903682e-05    5    1    6    5
 -1.321385741745596e-06    5    1    6    6
 -0.0007816650805176817    5    1    7    1
 -4.512480876369129e-06    5    1    7    2
 8.449317275242281e-07    5    1    7    3
 0.0005068549150028004    5    1    7    4
 -0.002035687374822976    5    1    7    5
 -2.87044976691478e-06    5    1    7    6
 0.0001969948974590861    5    1    7    7
 0.002948457744178816    5    1    8    1
 -1.470626056488362e-06    5    1    8    2
 -4.667015793841721e-06    5    1    8    3
 0.002041228151166194    5    1    8    4
 0.0005697243416570623    5    1    8    5
 1.106666050195785e-05    5    1    8    6
 0.007043524597463901    5    1    8    7
 -0.000124461121831461    5    1    8    8
 6.136906799053773e-07    5    1    9    1
 0.002296145327269114    5    1    9    2
 -8.351026364414144e-05    5    1    9    3
 -7.15502726613255e-07    5    1    9    4
 2.136848715808133e-08    5    1    9    5
 0.0001896132231865765    5    1    9    6
 -1.806384714747552e-06    5    1    9    7
 -7.555474120974852e-06    5    1    9    8
 0.003553647012413487    5    1    9    9
 -3.396843373734216e-06    5    1   10    1
 5.26990055247199e-05    5    1   10    2
 0.00236348885513488    5    1   10    3
 -4.245387569415991e-07    5    1   10    4
 1.521302437034758e-07    5    1   10    5
 -0.003654334222334871    5    1   10    6
 -3.052890774184376e-06    5    1   10    7
 4.918435617937882e-06    5    1   10    8
 0.005910303156419289    5    1   10    9
 -0.00347894776464477    5    1   10   10
 0.00013865665693039    5    2    1    1
 -0.0004521170869369249    5    2    2    1
 0.0001493533017901711    5    2    2    2
 -0.00131550106628562    5    2    3    1
 -1.224692879846133e-05    5    2    3    2
 0.0001359763020463632    5    2    3    3
 -3.278148646225618e-05    5    2    4    1
 -0.1374912926777989    5    2    4    2
 -0.2054848143383219    5    2    4    3
 0.0001599600907833663    5    2    4    4
 3.871338908505473e-06    5    2    5    1
 0.2366817090130876    5    2    5    2
 -0.1374474248957228    5    2    5    3
 2.462576124670951e-05    5    2    5    4
 0.0001790312176062681    5    2    5    5
 0.2423477488018386    5    2    6    1
 8.809799847760984e-06    5    2    6    2
 4.120266532300879e-05    5    2    6    3
 -0.001580977912619732    5    2    6    4
 -0.0003113904455767538    5    2    6    5
 0.0001872157453635229    5    2    6    6
 -1.027944535108883e-05    5    2    7    1
 0.001481759648867517    5    2    7    2
 0.0003339683242241927    5    2    7    3
 1.244544451868179e-05    5    2    7    4
 -5.06248584502418e-06    5    2    7    5
 0.004258708937074604    5    2    7    6
 0.0004607849896572447    5    2    7    7
 1.426135014272573e-06    5    2    8    1
 -0.006901205934769583    5    2    8    2
 0.0005147438431547715    5    2    8    3
 5.118343105438745e-06    5    2    8    4
 -1.457193190670468e-06    5    2    8    5
 0.001248126936262307    5    2    8    6
 -3.317124816133535e-06    5    2    8    7
 0.000622182741489597    5    2    8    8
 -0.004333268446541481    5    2    9    1
 -1.000971508079252e-05    5    2    9    2
 -2.051182310169583e-06    5    2    9    3
 0.01341465842367073    5    2    9    4
 0.004720858322684159    5    2    9    5
 -8.60153383185458e-06    5    2    9    6
 -0.2380819029953769    5    2    9    7
 -0.05963540265637118    5    2    9    8
 -0.0002573023183634303    5    2    9    9
 -0.0001037793057679642    5    2   10    1
 1.409339997233059e-05    5    2   10    2
 4.538478720720147e-06    5    2   10    3
 0.000838125166091919    5    2   10    4
 -0.00754820933423687    5    2   10    5
 1.596330474945122e-05    5    2   10    6
 0.06225837630075409    5    2   10    7
 -0.2298469017245903    5    2   10    8
 -5.473365952169051e-05    5    2   10    9
 -0.0003935564084727687    5    2   10   10
 -0.000104496177742413    5    3    1    1
 0.0001877873724551844    5    3    2    1
 -0.0001050094989453743    5    3    2    2
 0.0008571374803450768    5    3    3    1
 1.183695448683439e-05    5    3    3    2
 -0.0001155908341816381    5    3    3    3
 1.964278514024603e-05    5    3    4    1
 0.06988611613064021    5    3    4    2
 0.1374563715113818    5    3    4    3
 -0.0001234872074788689    5    3    4    4
 4.096320914814544e-06    5    3    5    1
 -0.137447424895723    5    3    5    2
 0.1010761428091394    5    3    5    3
 -2.727171533638119e-05    5    3    5    4
 -0.0001337155665889307    5    3    5    5
 -0.1505683976269057    5    3    6    1
 3.316819799131678e-07    5    3    6    2
 -2.906275252839557e-05    5    3    6    3
 0.0009058320749461824    5    3    6    4
 0.0002987735489186551    5    3    6    5
 -0.0001357297921156878    5    3    6    6
 6.922253248277184e-06    5    3    7    1
 -0.004148747779413567    5    3    7    2
 0.002976301894501542    5    3    7    3
 -1.025104373542805e-05    5    3    7    4
 -3.219526592431657e-06    5    3    7    5
 -0.001279617585438642    5    3    7    6
 -0.0003040808376574135    5    3    7    7
 4.43906224516289e-06    5    3    8    1
 0.0009510083054837219    5    3    8    2
 -0.003174372135284061    5    3    8    3
 6.480041366792142e-06    5    3    8    4
 -3.921760630890985e-06    5    3    8    5
 0.004169761729990762    5    3    8    6
 -5.783680683417434e-06    5    3    8    7
 -0.0004120879211421692    5    3    8    8
 0.0001862107228696111    5    3    9    1
 4.679324543315297e-06    5    3    9    2
 1.107550550173098e-06    5    3    9    3