 &FCI NORB=   5,NELEC= 7,MS2=3,
  ORBSYM=1,1,1,1,1,
  ISYM=1,
 &END
 0.9370490236379857    1    1    1    1
 4.780150233818038e-05    1    1    2    1
 0.855997062352559    1    1    2    2
 -0.0013365138557835    1    1    3    1
 0.0002698069998596305    1    1    3    2
 0.8701953320253405    1    1    3    3
 0.0005706691297385729    1    1    4    1
 8.043554955045364e-05    1    1    4    2
 0.005889271215368814    1    1    4    3
 0.8878037872907856    1    1    4    4
 0.0003200892450796127    1    1    5    1
 -0.0002880923775506891    1    1    5    2
 -0.003161474109625412    1    1    5    3
 -0.01124936409649116    1    1    5    4
 0.8758846098634908    1    1    5    5
 4.780150233813758e-05    2    1    1    1
 0.04129477681819169    2    1    2    1
 1.331446384439608e-05    2    1    2    2
 -2.281503249070777e-05    2    1    3    1
 4.005438097033525e-05    2    1    3    2
 -0.004458708855041978    2    1    3    3
 0.0001557577643794588    2    1    4    1
 -6.417530148585299e-05    2    1    4    2
 -0.008557813006362968    2    1    4    3
 0.005676229212352465    2    1    4    4
 -8.910343055091159e-06    2    1    5    1
 -8.074206222932542e-05    2    1    5    2
 -0.01529266646411291    2    1    5    3
 0.003910395352838771    2    1    5    4
 -0.001204377889256238    2    1    5    5
 0.8559970623525593    2    2    1    1
 1.331446384434402e-05    2    2    2    1
 0.9404163097566126    2    2    2    2
 -0.001401113114036694    2    2    3    1
 0.0001519407636614645    2    2    3    2
 0.8891637766104251    2    2    3    3
 0.0007173863706968125    2    2    4    1
 0.0001074899085055329    2    2    4    2
 -0.007401568426859628    2    2    4    3
 0.86957752070495    2    2    4    4
 0.0004931840603272848    2    2    5    1
 -0.0001078545755646899    2    2    5    2
 0.005056272035291782    2    2    5    3
 0.01674836532598667    2    2    5    4
 0.8805286244501922    2    2    5    5
 -0.001336513855783708    3    1    1    1
 -2.281503249072626e-05    3    1    2    1
 -0.001401113114037018    3    1    2    2
 0.03514228779835839    3    1    3    1
 0.002242781011543673    3    1    3    2
 -0.001334343054090899    3    1    3    3
 -0.003298827250673246    3    1    4    1
 0.004190419495957065    3    1    4    2
 0.002279344018441272    3    1    4    3
 0.01283347827175076    3    1    4    4
 0.002044857534605427    3    1    5    1
 0.007779704124979401    3    1    5    2
 0.003288690353604539    3    1    5    3
 0.00580468243597443    3    1    5    4
 -0.01498151228169414    3    1    5    5
 0.0002698069998594833    3    2    1    1
 4.005438097033143e-05    3    2    2    1
 0.0001519407636615451    3    2    2    2
 0.002242781011543729    3    2    3    1
 0.02639798698065665    3    2    3    2
 0.0001216816797088524    3    2    3    3
 0.004372489946813    3    2    4    1
 0.003365229577095424    3    2    4    2
 -0.007639804917859074    3    2    4    3
 0.004282927382853278    3    2    4    4
 0.007581368655710778    3    2    5    1
 -0.002035045740271873    3    2    5    2
 0.004349325606723122    3    2    5    3
 -0.003277168931009626    3    2    5    4
 -0.004181968116503691    3    2    5    5
 0.8701953320253414    3    3    1    1
 -0.00445870885504194    3    3    2    1
 0.8891637766104251    3    3    2    2
 -0.001334343054090988    3    3    3    1
 0.0001216816797092637    3    3    3    2
 0.9443293245855012    3    3    3    3
 -0.004118911933934569    3    3    4    1
 0.01531684439324735    3    3    4    2
 -0.0008678465847924464    3    3    4    3
 0.8705672541490697    3    3    4    4
 -0.006276924637845591    3    3    5    1
 -0.008692418219124309    3    3    5    2
 0.001124388501797923    3    3    5    3
 0.003027726756528817    3    3    5    4
 0.8696799430293936    3    3    5    5
 0.0005706691297384309    4    1    1    1
 0.0001557577643794567    4    1    2    1
 0.0007173863706971015    4    1    2    2
 -0.003298827250673304    4    1    3    1
 0.004372489946812978    4    1    3    2
 -0.004118911933934813    4    1    3    3
 0.02577748622114808    4    1    4    1
 -0.00287209881876019    4    1    4    2
 -0.007119265194506961    4    1    4    3
 0.0006298741451767787    4    1    4    4
 0.007104401433387583    4    1    5    1
 -0.001859483477770643    4    1    5    2
 0.003648710266414652    4    1    5    3
 -0.003173188033817384    4    1    5    4
 0.004919435081006045    4    1    5    5
 8.043554955047292e-05    4    2    1    1
 -6.417530148586199e-05    4    2    2    1
 0.0001074899085054905    4    2    2    2
 0.004190419495957048    4    2    3    1
 0.00336522957709542    4    2    3    2
 0.01531684439324736    4    2    3    3
 -0.002872098818760184    4    2    4    1
 0.03568074065997848    4    2    4    2
 -0.002119016853171328    4    2    4    3
 1.3436018750824e-05    4    2    4    4
 -0.002033490016549    4    2    5    1
 -0.006834206113684765    4    2    5    2
 -0.00152329983641583    4    2    5    3
 -0.004315180921424026    4    2    5    4
 -0.01512569659003858    4    2    5    5
 0.005889271215368416    4    3    1    1
 -0.008557813006362981    4    3    2    1
 -0.007401568426859679    4    3    2    2
 0.002279344018441303    4    3    3    1
 -0.00763980491785907    4    3    3    2
 -0.0008678465847923853    4    3    3    3
 -0.007119265194506971    4    3    4    1
 -0.002119016853171314    4    3    4    2
 0.03622395831518229    4    3    4    3
 -0.0006493303285003274    4    3    4    4
 -0.009486708594702183    4    3    5    1
 0.004858660063362917    4    3    5    2
 0.00016112694434976    4    3    5    3
 3.348575041714958e-05    4    3    5    4
 -0.0004005070479569928    4    3    5    5
 0.8878037872907871    4    4    1    1
 0.005676229212352578    4    4    2    1
 0.86957752070495    4    4    2    2
 0.01283347827175085    4    4    3    1
 0.00428292738285341    4    4    3    2
 0.8705672541490694    4    4    3    3
 0.000629874145176547    4    4    4    1
 1.343601875070369e-05    4    4    4    2
 -0.0006493303284998976    4    4    4    3
 0.941863203409355    4    4    4    4
 0.006710741571127379    4    4    5    1
 0.008785604532964489    4    4    5    2
 0.0007710544958447286    4    4    5    3
 0.003173043109095853    4    4    5    4
 0.8687164824621204    4    4    5    5
 0.0003200892450796058    5    1    1    1
 -8.910343055090439e-06    5    1    2    1
 0.0004931840603270937    5    1    2    2
 0.002044857534605485    5    1    3    1
 0.007581368655710743    5    1    3    2
 -0.006276924637845461    5    1    3    3
 0.007104401433387579    5    1    4    1
 -0.00203349001654899    5    1    4    2
 -0.009486708594702209    5    1    4    3
 0.006710741571127569    5    1    4    4
 0.0312891055555539    5    1    5    1
 0.0006032871972696028    5    1    5    2
 0.006908617264036173    5    1    5    3
 -0.002196385050035891    5    1    5    4
 0.0003239250857144125    5    1    5    5
 -0.0002880923775506467    5    2    1    1
 -8.074206222932839e-05    5    2    2    1
 -0.0001078545755646867    5    2    2    2
 0.007779704124979438    5    2    3    1
 -0.002035045740271863    5    2    3    2
 -0.008692418219124429    5    2    3    3
 -0.001859483477770638    5    2    4    1
 -0.006834206113684773    5    2    4    2
 0.004858660063362946    5    2    4    3
 0.00878560453296426    5    2    4    4
 0.0006032871972696043    5    2    5    1
 0.02984858486385654    5    2    5    2
 0.002134437283620334    5    2    5    3
 0.007534912904195867    5    2    5    4
 -9.700318689992389e-05    5    2    5    5
 -0.003161474109625477    5    3    1    1
 -0.01529266646411291    5    3    2    1
 0.005056272035291582    5    3    2    2
 0.00328869035360451    5    3    3    1
 0.004349325606723152    5    3    3    2
 0.001124388501797768    5    3    3    3
 0.003648710266414695    5    3    4    1
 -0.001523299836415844    5    3    4    2
 0.0001611269443497323    5    3    4    3
 0.0007710544958449437    5    3    4    4
 0.006908617264036165    5    3    5    1
 0.002134437283620352    5    3    5    2
 0.0363684050683    5    3    5    3
 -0.0001425461159318757    5    3    5    4
 0.001036435214164212    5    3    5    5
 -0.01124936409649083    5    4    1    1
 0.00391039535283876    5    4    2    1
 0.01674836532598663    5    4    2    2
 0.005804682435974474    5    4    3    1
 -0.003277168931009709    5    4    3    2
 0.003027726756528751    5    4    3    3
 -0.003173188033817426    5    4    4    1
 -0.004315180921424025    5    4    4    2
 3.348575041715995e-05    5    4    4    3
 0.003173043109096068    5    4    4    4
 -0.002196385050035915    5    4    5    1
 0.007534912904195864    5    4    5    2
 -0.0001425461159318724    5    4    5    3
 0.03633272334900455    5    4    5    4
 0.003204749712054552    5    4    5    5
 0.8758846098634911    5    5    1    1
 -0.001204377889256276    5    5    2    1
 0.8805286244501925    5    5    2    2
 -0.01498151228169423    5    5    3    1
 -0.004181968116503615    5    5    3    2
 0.8696799430293936    5    5    3    3
 0.004919435081006208    5    5    4    1
 -0.01512569659003857    5    5    4    2
 -0.0004005070479570477    5    5    4    3
 0.8687164824621203    5    5    4    4
 0.0003239250857144573    5    5    5    1
 -9.700318689993594e-05    5    5    5    2
 0.001036435214164158    5    5    5    3
 0.003204749712054552    5    5    5    4
 0.9407307207625094    5    5    5    5
 -5.867430880766269    1    1  0  0
 2.121218574736268e-06    2    1  0  0
 -5.883166403716731    2    2  0  0
 0.007656712263603229    3    1  0  0
 -0.001050086370032423    3    2  0  0
 -5.858888773160868    3    3  0  0
 -0.003606331228144923    4    1  0  0
 -0.0002803972915639459    4    2  0  0
 -0.002831983799447114    4    3  0  0
 -5.870107638309594    4    4  0  0
 -0.002311401301067431    5    1  0  0
 0.0006863762071779975    5    2  0  0
 -0.001627004264766573    5    3  0  0
 -0.006875932280961661    5    4  0  0
 -5.857373771671768    5    5  0  0
 -2915.31075068771  0  0  0  0
