 &FCI NORB=   5,NELEC= 7,MS2=3,
  ORBSYM=1,1,1,1,1,
  ISYM=1,
 &END
 0.9377951143777928    1    1    1    1
 2.405245986761048e-05    1    1    2    1
 0.8572945376270324    1    1    2    2
 -0.0004273461207225726    1    1    3    1
 -0.000654556857956398    1    1    3    2
 0.8698340489874524    1    1    3    3
 -0.0009100227218141274    1    1    4    1
 0.0008566753632848537    1    1    4    2
 0.000968714748967211    1    1    4    3
 0.8701027130270019    1    1    4    4
 0.0006817598874110278    1    1    5    1
 0.0001117093188637702    1    1    5    2
 0.00594166728418258    1    1    5    3
 0.001571261251427717    1    1    5    4
 0.896849231134935    1    1    5    5
 2.40524598677054e-05    2    1    1    1
 0.04132308804245534    2    1    2    1
 -7.714259760413324e-05    2    1    2    2
 0.0003739610595625566    2    1    3    1
 0.0009338089195393307    2    1    3    2
 -0.005765984607110647    2    1    3    3
 -0.0004933577249499293    2    1    4    1
 -0.0003846584514225244    2    1    4    2
 0.01676066346855514    2    1    4    3
 0.004640132901647166    2    1    4    4
 6.290256749990483e-05    2    1    5    1
 -0.0001828395269023841    2    1    5    2
 -0.001959495644715704    2    1    5    3
 -0.00609716398797713    2    1    5    4
 0.0008156161549632311    2    1    5    5
 0.8572945376270324    2    2    1    1
 -7.714259760412318e-05    2    2    2    1
 0.9422426470366423    2    2    2    2
 -0.002400802788691271    2    2    3    1
 -6.756155530477879e-05    2    2    3    2
 0.8893929274856784    2    2    3    3
 -0.0001788872876385846    2    2    4    1
 -0.0001755247311737842    2    2    4    2
 -0.002402451265939876    2    2    4    3
 0.8925017869069544    2    2    4    4
 0.001078888294235595    2    2    5    1
 0.0001941709094229118    2    2    5    2
 -0.01023332738334158    2    2    5    3
 -0.005836215894009044    2    2    5    4
 0.861628692961061    2    2    5    5
 -0.0004273461207225823    3    1    1    1
 0.0003739610595625527    3    1    2    1
 -0.002400802788691351    3    1    2    2
 0.0351244398984075    3    1    3    1
 0.002827451524696483    3    1    3    2
 -0.0003616634474780984    3    1    3    3
 -0.0006713484424265263    3    1    4    1
 -0.008401650013592927    3    1    4    2
 0.004223637954654949    3    1    4    3
 0.004593464573293703    3    1    4    4
 -0.004038013201054755    3    1    5    1
 0.001650355670493946    3    1    5    2
 -0.000255918348609931    3    1    5    3
 0.01443869818931175    3    1    5    4
 -0.003546702808885354    3    1    5    5
 -0.0006545568579564242    3    2    1    1
 0.0009338089195393255    3    2    2    1
 -6.756155530472741e-05    3    2    2    2
 0.002827451524696478    3    2    3    1
 0.02645418343010394    3    2    3    2
 -2.371091392607622e-05    3    2    3    3
 -0.008409381234535038    3    2    4    1
 0.0009587398978321414    3    2    4    2
 0.0009215552172799427    3    2    4    3
 0.006131716672837393    3    2    4    4
 0.0001321182899468274    3    2    5    1
 0.004051443761645282    3    2    5    2
 0.008396198132298858    3    2    5    3
 0.001068323695362977    3    2    5    4
 -0.005606931117592987    3    2    5    5
 0.8698340489874531    3    3    1    1
 -0.0057659846071108    3    3    2    1
 0.8893929274856781    3    3    2    2
 -0.0003616634474779849    3    3    3    1
 -2.371091392609438e-05    3    3    3    2
 0.9432631140894385    3    3    3    3
 -0.00931542654574135    3    3    4    1
 -0.002121368056175557    3    3    4    2
 -0.0005450226539797839    3    3    4    3
 0.8730933259423552    3    3    4    4
 0.001244856696396039    3    3    5    1
 -0.01662387580613276    3    3    5    2
 -0.002192301372011362    3    3    5    3
 0.0005489369624114923    3    3    5    4
 0.8688293147429738    3    3    5    5
 -0.0009100227218146139    4    1    1    1
 -0.0004933577249499691    4    1    2    1
 -0.0001788872876381876    4    1    2    2
 -0.000671348442426593    4    1    3    1
 -0.008409381234535111    4    1    3    2
 -0.0093154265457412    4    1    3    3
 0.03604870922511156    4    1    4    1
 -0.002348070297922048    4    1    4    2
 -0.002493215450901174    4    1    4    3
 -0.0009960025416843982    4    1    4    4
 -0.001475656402195244    4    1    5    1
 0.003530871428412844    4    1    5    2
 -0.01354539614885645    4    1    5    3
 0.0005135234010814233    4    1    5    4
 0.007061410982190097    4    1    5    5
 0.0008566753632846929    4    2    1    1
 -0.0003846584514225308    4    2    2    1
 -0.000175524731173615    4    2    2    2
 -0.008401650013592893    4    2    3    1
 0.0009587398978321598    4    2    3    2
 -0.00212136805617546    4    2    3    3
 -0.002348070297922059    4    2    4    1
 0.02592806993957037    4    2    4    2
 -0.003078972503696003    4    2    4    3
 -0.000228410772953012    4    2    4    4
 0.002537446380815535    4    2    5    1
 0.002286123843920441    4    2    5    2
 0.00406402333426727    4    2    5    3
 -0.008462339337395911    4    2    5    4
 0.0007865015069889173    4    2    5    5
 0.0009687147489670998    4    3    1    1
 0.01676066346855517    4    3    2    1
 -0.00240245126593969    4    3    2    2
 0.004223637954654921    4    3    3    1
 0.0009215552172799237    4    3    3    2
 -0.0005450226539796617    4    3    3    3
 -0.002493215450901141    4    3    4    1
 -0.003078972503696026    4    3    4    2
 0.03598546464260521    4    3    4    3
 -0.000577253804005991    4    3    4    4
 -0.0008807038870993635    4    3    5    1
 -0.005147669755851324    4    3    5    2
 -0.001033326307811781    4    3    5    3
 -0.0003805315786487659    4    3    5    4
 0.0001714374529337879    4    3    5    5
 0.8701027130270033    4    4    1    1
 0.004640132901647361    4    4    2    1
 0.8925017869069538    4    4    2    2
 0.004593464573293707    4    4    3    1
 0.006131716672837362    4    4    3    2
 0.8730933259423552    4    4    3    3
 -0.0009960025416848319    4    4    4    1
 -0.0002284107729530119    4    4    4    2
 -0.0005772538040060874    4    4    4    3
 0.9470003679466837    4    4    4    4
 -0.0004678698407500965    4    4    5    1
 0.01708867009831639    4    4    5    2
 -0.001534972602415897    4    4    5    3
 -0.00154812495527522    4    4    5    4
 0.8709101655668232    4    4    5    5
 0.0006817598874109363    5    1    1    1
 6.290256749990899e-05    5    1    2    1
 0.001078888294235689    5    1    2    2
 -0.004038013201054754    5    1    3    1
 0.0001321182899468208    5    1    3    2
 0.001244856696396216    5    1    3    3
 -0.001475656402195256    5    1    4    1
 0.00253744638081554    5    1    4    2
 -0.0008807038870993713    5    1    4    3
 -0.000467869840750254    5    1    4    4
 0.02120889833132064    5    1    5    1
 -0.000608320565487363    5    1    5    2
 0.001525078530734844    5    1    5    3
 -0.003997704240791332    5    1    5    4
 0.0006860851755887249    5    1    5    5
 0.0001117093188637589    5    2    1    1
 -0.000182839526902343    5    2    2    1
 0.0001941709094228338    5    2    2    2
 0.001650355670493915    5    2    3    1
 0.004051443761645259    5    2    3    2
 -0.01662387580613254    5    2    3    3
 0.00353087142841287    5    2    4    1
 0.002286123843920441    5    2    4    2
 -0.005147669755851369    5    2    4    3
 0.01708867009831636    5    2    4    4
 -0.0006083205654873737    5    2    5    1
 0.03983991281678669    5    2    5    2
 0.002735591474010638    5    2    5    3
 -0.0005189054433910023    5    2    5    4
 0.0002462558308148967    5    2    5    5
 0.00594166728418285    5    3    1    1
 -0.001959495644715696    5    3    2    1
 -0.0102333273833415    5    3    2    2
 -0.0002559183486099166    5    3    3    1
 0.008396198132298869    5    3    3    2
 -0.002192301372011338    5    3    3    3
 -0.01354539614885642    5    3    4    1
 0.004064023334267226    5    3    4    2
 -0.001033326307811765    5    3    4    3
 -0.001534972602415854    5    3    4    4
 0.001525078530734841    5    3    5    1
 0.002735591474010661    5    3    5    2
 0.03656780072176707    5    3    5    3
 -0.0002829353720363049    5    3    5    4
 -0.00212811420445941    5    3    5    5
 0.001571261251427744    5    4    1    1
 -0.006097163987977113    5    4    2    1
 -0.00583621589400894    5    4    2    2
 0.01443869818931175    5    4    3    1
 0.001068323695362964    5    4    3    2
 0.0005489369624118376    5    4    3    3
 0.0005135234010814346    5    4    4    1
 -0.008462339337395897    5    4    4    2
 -0.0003805315786487994    5    4    4    3
 -0.0015481249552755    5    4    4    4
 -0.003997704240791335    5    4    5    1
 -0.0005189054433910034    5    4    5    2
 -0.0002829353720363302    5    4    5    3
 0.03652252946412593    5    4    5    4
 -0.001339986207910228    5    4    5    5
 0.8968492311349346    5    5    1    1
 0.0008156161549632491    5    5    2    1
 0.8616286929610613    5    5    2    2
 -0.003546702808885343    5    5    3    1
 -0.005606931117592957    5    5    3    2
 0.8688293147429732    5    5    3    3
 0.007061410982190226    5    5    4    1
 0.000786501506988885    5    5    4    2
 0.000171437452933746    5    5    4    3
 0.8709101655668229    5    5    4    4
 0.0006860851755888084    5    5    5    1
 0.0002462558308147597    5    5    5    2
 -0.002128114204459384    5    5    5    3
 -0.001339986207910197    5    5    5    4
 0.9406666012014407    5    5    5    5
 -5.97906647275505    1    1  0  0
 0.001228913425391066    2    1  0  0
 -5.997209994436716    2    2  0  0
 0.006793456806964185    3    1  0  0
 0.001562591904478178    3    2  0  0
 -5.967155787409607    3    3  0  0
 0.004083029119710759    4    1  0  0
 -0.001119461411746575    4    2  0  0
 -0.0002342686716368453    4    3  0  0
 -5.981988438705863    4    4  0  0
 -0.00486738375317862    5    1  0  0
 -0.0008706928110833634    5    2  0  0
 0.005036913725780187    5    3  0  0
 -0.002691371773361359    5    4  0  0
 -5.979397368332019    5    5  0  0
 -3339.79664107175  0  0  0  0
