 &FCI NORB=  22,NELEC=31,MS2=3,
  ORBSYM=1,1,1,1,1,1,1,1,1,1,1,1,1,1,1,1,1,1,1,1,1,1,
  ISYM=1,
 &END
 0.2286835935209023    1    1    1    1
 -0.0002632692245990647    1    1    2    1
 0.2256836382801821    1    1    2    2
 0.000102681950850707    1    1    3    1
 -0.004748624447038018    1    1    3    2
 0.2460343262001611    1    1    3    3
 -0.01382609136104434    1    1    4    1
 -0.0001541081397092094    1    1    4    2
 -0.0002391651067722988    1    1    4    3
 0.2163427107673951    1    1    4    4
 -0.00406198915586186    1    1    5    1
 -1.115293052550576e-05    1    1    5    2
 0.0001319412930626916    1    1    5    3
 0.007725487092531455    1    1    5    4
 0.2296814840422704    1    1    5    5
 -0.0002342785034857248    1    1    6    1
 -0.008033087785604902    1    1    6    2
 -0.0104580503929291    1    1    6    3
 -2.333441039693142e-05    1    1    6    4
 0.0002013893038327611    1    1    6    5
 0.2301183786056757    1    1    6    6
 -5.882210815800001e-05    1    1    7    1
 0.0007118454883539364    1    1    7    2
 0.004023941274315363    1    1    7    3
 -5.160646541580895e-05    1    1    7    4
 -0.0001072188910434489    1    1    7    5
 -0.004713851564473074    1    1    7    6
 0.2028841719865397    1    1    7    7
 0.004933760823787156    1    1    8    1
 4.77829881270782e-05    1    1    8    2
 8.725653867524604e-05    1    1    8    3
 -0.002923351786001214    1    1    8    4
 -0.00472113866883715    1    1    8    5
 -0.000157576106188257    1    1    8    6
 -0.0002722640727945533    1    1    8    7
 0.2014681766803186    1    1    8    8
 -3.129355204971384e-05    1    1    9    1
 -0.0001206173972341858    1    1    9    2
 -0.003902182712691653    1    1    9    3
 2.374252607583956e-05    1    1    9    4
 -3.099379528086934e-05    1    1    9    5
 9.847121064224532e-05    1    1    9    6
 0.002745960143000271    1    1    9    7
 -2.571973958004855e-05    1    1    9    8
 0.2027623954530779    1    1    9    9
 -0.001821162322746274    1    1   10    1
 -2.91023791911485e-05    1    1   10    2
 -4.316980829844842e-05    1    1   10    3
 0.004178181148905176    1    1   10    4
 0.002919515644812721    1    1   10    5
 3.359639035444751e-05    1    1   10    6
 2.571721781565475e-05    1    1   10    7
 0.0006834184196201206    1    1   10    8
 -5.03859244367265e-05    1    1   10    9
 0.1846461037142468    1    1   10   10
 1.292760275305674e-06    1    1   11    1
 0.001310426392876339    1    1   11    2
 -0.00152661425976005    1    1   11    3
 -1.327829978961198e-05    1    1   11    4
 8.548039805575186e-06    1    1   11    5
 -0.001152018241951923    1    1   11    6
 0.00348715356999765    1    1   11    7
 -1.573475456726018e-05    1    1   11    8
 -0.00474428618290264    1    1   11    9
 -0.0002373017613354184    1    1   11   10
 0.1858033302016621    1    1   11   11
 0.001922675223159123    1    1   12    1
 2.790836309852969e-05    1    1   12    2
 8.469858664794766e-06    1    1   12    3
 0.001694788206246769    1    1   12    4
 -0.002039932502021147    1    1   12    5
 -1.743244080819215e-05    1    1   12    6
 9.644665479104825e-05    1    1   12    7
 -0.004629839513210773    1    1   12    8
 0.0001181903361505124    1    1   12    9
 -0.007612078928534065    1    1   12   10
 -7.154499648066272e-05    1    1   12   11
 0.1845911667900977    1    1   12   12
 -5.902861069157854e-06    1    1   13    1
 0.001478342641520271    1    1   13    2
 -0.00313690877141152    1    1   13    3
 -5.634917119552441e-06    1    1   13    4
 1.770144568390208e-05    1    1   13    5
 -0.001592475815142588    1    1   13    6
 -0.005189018473701047    1    1   13    7
 -5.108758041950959e-05    1    1   13    8
 0.001441545619549201    1    1   13    9
 1.75404279268009e-05    1    1   13   10
 0.002848273974197301    1    1   13   11
 2.101658501941261e-05    1    1   13   12
 0.2763675566870083    1    1   13   13
 -0.0006021464640822048    1    1   14    1
 -1.672157776720116e-06    1    1   14    2
 -4.538981764925844e-07    1    1   14    3
 -0.001707434040074256    1    1   14    4
 0.002408977699615856    1    1   14    5
 2.348721078327899e-05    1    1   14    6
 -2.140847434074928e-05    1    1   14    7
 0.003974975182747659    1    1   14    8
 1.843671633317842e-05    1    1   14    9
 -0.004995843801765127    1    1   14   10
 3.677885239743338e-06    1    1   14   11
 -0.003013811871920626    1    1   14   12
 -8.911597799882428e-06    1    1   14   13
 0.2765673617138045    1    1   14   14
 0.00148021512215195    1    1   15    1
 1.118433303440898e-05    1    1   15    2
 3.479658922355918e-06    1    1   15    3
 0.0006866018644617255    1    1   15    4
 -0.0007270953154020664    1    1   15    5
 -1.117145490038479e-05    1    1   15    6
 -1.491419863612892e-05    1    1   15    7
 -0.002900775621321004    1    1   15    8
 1.376145838937313e-05    1    1   15    9
 -0.002301328920726773    1    1   15   10
 -4.781053820295613e-06    1    1   15   11
 -0.007499233971004535    1    1   15   12
 9.946368907241678e-06    1    1   15   13
 -0.0001942425123435916    1    1   15   14
 0.2763761301332332    1    1   15   15
 -2.430263259604105e-05    1    1   16    1
 -0.00406724589472225    1    1   16    2
 -0.001265554931075649    1    1   16    3
 -1.208266450835066e-05    1    1   16    4
 0.0001337532313596895    1    1   16    5
 -0.008871058820355998    1    1   16    6
 -0.000852611736956249    1    1   16    7
 -1.389093503633732e-05    1    1   16    8
 0.0004032727919654506    1    1   16    9
 2.223313567178255e-06    1    1   16   10
 0.0001876170823857758    1    1   16   11
 1.597889694186712e-06    1    1   16   12
 0.0001011002102592964    1    1   16   13
 -7.682145620511486e-06    1    1   16   14
 3.936772515999333e-06    1    1   16   15
 0.2769986935825166    1    1   16   16
 -0.001112818039092448    1    1   17    1
 -2.587951362809596e-06    1    1   17    2
 -2.261460716831754e-06    1    1   17    3
 0.0009149982217828    1    1   17    4
 -0.008857269161002315    1    1   17    5
 -4.250694398377467e-05    1    1   17    6
 -2.186928772433079e-05    1    1   17    7
 0.001624211298549633    1    1   17    8
 5.658868841161497e-06    1    1   17    9
 -0.0002554211277081245    1    1   17   10
 -5.689616608173282e-06    1    1   17   11
 -0.0005194513890624991    1    1   17   12
 -1.063174178024448e-05    1    1   17   13
 0.0001446744913173849    1    1   17   14
 6.455972228986533e-05    1    1   17   15
 2.967591324945913e-05    1    1   17   16
 0.2771794494046394    1    1   17   17
 0.0008771225247503989    1    1   18    1
 5.113089832830626e-06    1    1   18    2
 5.028770167782187e-06    1    1   18    3
 -0.001888477887421946    1    1   18    4
 0.0002204121363975605    1    1   18    5
 3.649917685349001e-06    1    1   18    6
 -3.055642112365352e-05    1    1   18    7
 0.0007765475581460806    1    1   18    8
 2.038029504230073e-05    1    1   18    9
 -0.004691719920717367    1    1   18   10
 2.465534909786004e-06    1    1   18   11
 -0.008159664483952967    1    1   18   12
 5.614354589590612e-06    1    1   18   13
 -0.005144514989088006    1    1   18   14
 -0.005896660695566794    1    1   18   15
 2.992453402334305e-07    1    1   18   16
 -0.0005383020306657047    1    1   18   17
 0.2679437445460023    1    1   18   18
 -2.328894448141369e-05    1    1   19    1
 0.001288479861077448    1    1   19    2
 -0.003252158504468805    1    1   19    3
 2.172833441986839e-05    1    1   19    4
 6.289236778549612e-05    1    1   19    5
 -0.004786203522038157    1    1   19    6
 -0.006243146636409097    1    1   19    7
 -6.543708297243408e-05    1    1   19    8
 0.001709052274537067    1    1   19    9
 1.170645979020334e-05    1    1   19   10
 0.002595705334985972    1    1   19   11
 1.541433818833936e-05    1    1   19   12
 -0.007401090793434875    1    1   19   13
 -1.082629564391249e-05    1    1   19   14
 2.895220532090936e-06    1    1   19   15
 -0.002404960472778759    1    1   19   16
 2.533703418374318e-06    1    1   19   17
 -5.853305842925804e-08    1    1   19   18
 0.2682731236193387    1    1   19   19
 -0.0008302967627627397    1    1   20    1
 3.155526295976767e-06    1    1   20    2
 2.797464193348518e-05    1    1   20    3
 -0.000608096736290606    1    1   20    4
 0.003802329936004937    1    1   20    5
 4.349907388465688e-05    1    1   20    6
 -4.807010927590571e-06    1    1   20    7
 0.004580962868016249    1    1   20    8
 9.305749933644875e-06    1    1   20    9
 -0.002592833246806989    1    1   20   10
 8.863604416011405e-06    1    1   20   11
 0.002287806020665039    1    1   20   12
 -5.364508696953087e-06    1    1   20   13
 -0.005635348684955048    1    1   20   14
 0.004392466438024472    1    1   20   15
 -1.198035411032583e-05    1    1   20   16
 0.001397674133010052    1    1   20   17
 -0.0003285412796653305    1    1   20   18
 -1.885680419851874e-05    1    1   20   19
 0.2690649268288868    1    1   20   20
 -0.001083365141054789    1    1   21    1
 1.809959438745008e-05    1    1   21    2
 -5.323703525035737e-08    1    1   21    3
 -0.0004343240057803166    1    1   21    4
 -0.005970351492611012    1    1   21    5
 -4.232859431591308e-05    1    1   21    6
 -1.881245895099991e-05    1    1   21    7
 0.002836058647910929    1    1   21    8
 2.179686143454021e-06    1    1   21    9
 -0.0001766820391326371    1    1   21   10
 -2.766995580644305e-06    1    1   21   11
 0.0009919570242346825    1    1   21   12
 -1.646723738606849e-05    1    1   21   13
 -0.001266400259566843    1    1   21   14
 0.002216065435438503    1    1   21   15
 2.065548141675452e-05    1    1   21   16
 -0.005506491382304948    1    1   21   17
 0.0005010071853627556    1    1   21   18
 -8.544708085733602e-06    1    1   21   19
 -0.001952825202603271    1    1   21   20
 0.2724778356061203    1    1   21   21
 9.63520436444054e-06    1    1   22    1
 -0.003010064142226921    1    1   22    2
 0.002257167517353805    1    1   22    3
 -3.9104873751253e-07    1    1   22    4
 8.066918749818994e-05    1    1   22    5
 -0.005288565895601188    1    1   22    6
 0.0005610894414278174    1    1   22    7
 1.67135821256846e-06    1    1   22    8
 -0.0003076621160185129    1    1   22    9
 -4.188712176417913e-06    1    1   22   10
 -0.001136911633426113    1    1   22   11
 -2.356084673926114e-06    1    1   22   12
 0.003614639757638967    1    1   22   13
 -1.744085722237018e-06    1    1   22   14
 -1.882353896188348e-08    1    1   22   15
 -0.00524844740024233    1    1   22   16
 3.603768392862977e-05    1    1   22   17
 6.374640978684657e-08    1    1   22   18
 0.002384121986065667    1    1   22   19
 -1.618565502502528e-05    1    1   22   20
 5.043249441364153e-05    1    1   22   21
 0.2719436687117761    1    1   22   22
 -0.0002632692245990646    2    1    1    1
 0.06117391362377334    2    1    2    1
 0.0001010106186973971    2    1    2    2
 -0.003271113432845835    2    1    3    1
 2.656744743676127e-05    2    1    3    2
 2.632076201298298e-05    2    1    3    3
 -0.000120892227096574    2    1    4    1
 0.02314228752888945    2    1    4    2
 0.0291019854316712    2    1    4    3
 -3.258670093852721e-05    2    1    4    4
 8.296964970866462e-05    2    1    5    1
 0.04352181980537298    2    1    5    2
 -0.02193850392468997    2    1    5    3
 -0.0003827007838768539    2    1    5    4
 0.001457518006173808    2    1    5    5
 -0.004742990203708749    2    1    6    1
 0.0006435416554650507    2    1    6    2
 -0.0003308866386612339    2    1    6    3
 0.03045141723547215    2    1    6    4
 -0.05729593217338437    2    1    6    5
 -0.001355629237933073    2    1    6    6
 -0.002891017786090559    2    1    7    1
 -7.024588828904004e-05    2    1    7    2
 6.146366134135237e-05    2    1    7    3
 0.0119154032749473    2    1    7    4
 0.02520718365492017    2    1    7    5
 0.000220697363480858    2    1    7    6
 -0.001006668668974698    2    1    7    7
 2.427223813748701e-05    2    1    8    1
 -0.007992763689413268    2    1    8    2
 -0.00267235689256307    2    1    8    3
 -2.987020593803841e-06    2    1    8    4
 -2.668795422761962e-05    2    1    8    5
 0.01824890485131986    2    1    8    6
 0.06476401704113069    2    1    8    7
 0.001012729645463475    2    1    8    8
 -0.000637932150163642    2    1    9    1
 -7.414416727013111e-05    2    1    9    2
 8.594348696675586e-06    2    1    9    3
 -0.002022640705890119    2    1    9    4
 0.0005608327897399571    2    1    9    5
 4.781277593175879e-05    2    1    9    6
 -6.96044657171234e-06    2    1    9    7
 0.002554051333464072    2    1    9    8
 -6.935730462161655e-05    2    1    9    9
 -6.074734414085818e-05    2    1   10    1
 0.004619228998101091    2    1   10    2
 0.002963138739629368    2    1   10    3
 -5.453490545720672e-07    2    1   10    4
 1.407534560063998e-05    2    1   10    5
 -0.001367095678579634    2    1   10    6
 -0.009468169649011936    2    1   10    7
 -6.911517212533726e-06    2    1   10    8
 0.01543588018384299    2    1   10    9
 0.00030933723051925    2    1   10   10
 -0.000835918915867186    2    1   11    1
 1.135282200677248e-05    2    1   11    2
 -1.455140729265352e-05    2    1   11    3
 -0.0004785241716758051    2    1   11    4
 0.003959487314565858    2    1   11    5
 2.694343163863051e-05    2    1   11    6
 -9.588900722941633e-05    2    1   11    7
 0.01438148872422102    2    1   11    8
 -0.0002021325434620823    2    1   11    9
 0.04384422285520285    2    1   11   10
 -0.0002070967474166582    2    1   11   11
 3.948128600051123e-05    2    1   12    1
 -0.002701674853103592    2    1   12    2
 -0.003245702759939156    2    1   12    3
 -3.315565108169752e-05    2    1   12    4
 -1.214206307805378e-05    2    1   12    5
 -0.001118616852839262    2    1   12    6
 0.008164268996956462    2    1   12    7
 -9.921122843040847e-05    2    1   12    8
 -0.005555219505265456    2    1   12    9
 1.727040914317822e-05    2    1   12   10
 0.01245189370019816    2    1   12   11
 -1.373575392540872e-05    2    1   12   12
 -0.001275198086719693    2    1   13    1
 -1.821874283603716e-06    2    1   13    2
 3.764753784484444e-06    2    1   13    3
 -0.000984237809006471    2    1   13    4
 -0.001503234788304311    2    1   13    5
 -1.655600298445173e-05    2    1   13    6
 -2.037188887785351e-05    2    1   13    7
 0.002693498061635146    2    1   13    8
 5.110524488468545e-06    2    1   13    9
 -0.00135115557216083    2    1   13   10
 -1.302451803310496e-06    2    1   13   11
 -3.168693768163155e-05    2    1   13   12
 1.092734838713605e-05    2    1   13   13
 -2.872278644315597e-06    2    1   14    1
 -0.001402377428922891    2    1   14    2
 -0.001326086254542887    2    1   14    3
 2.795795953133741e-06    2    1   14    4
 -2.325888681218475e-05    2    1   14    5
 0.002027110316924431    2    1   14    6
 -0.002304272041712035    2    1   14    7
 -1.569391130164012e-05    2    1   14    8
 -0.0003189641786206941    2    1   14    9
 1.769629293231215e-06    2    1   14   10
 0.001300492201681541    2    1   14   11
 4.545752661338272e-06    2    1   14   12
 0.0003474114041492742    2    1   14   13
 9.152809510509408e-06    2    1   14   14
 3.056952174307093e-06    2    1   15    1
 -0.0005132534458402297    2    1   15    2
 0.000183877635865784    2    1   15    3
 -3.380057259034476e-06    2    1   15    4
 2.868062394068042e-06    2    1   15    5
 -0.000700599104266795    2    1   15    6
 0.001944213862676469    2    1   15    7
 1.608336417643e-05    2    1   15    8
 0.0001109498632391277    2    1   15    9
 5.382123825309849e-06    2    1   15   10
 0.002469619412770883    2    1   15   11
 -4.629331317889929e-06    2    1   15   12
 -0.0004221688069956256    2    1   15   13
 3.164596242683131e-06    2    1   15   14
 1.207366981570923e-05    2    1   15   15
 0.003229932298049573    2    1   16    1
 2.554446638228539e-05    2    1   16    2
 -1.648620595333389e-05    2    1   16    3
 0.004431142331882866    2    1   16    4
 -0.00710372518763837    2    1   16    5
 -9.662048488135793e-05    2    1   16    6
 -1.04469933125234e-05    2    1   16    7
 0.001632547389872391    2    1   16    8
 3.670903552739013e-06    2    1   16    9
 0.0001749408643972755    2    1   16   10
 -2.04008687134795e-06    2    1   16   11
 -0.0005360007915666805    2    1   16   12
 -8.806996041272871e-07    2    1   16   13
 0.0006230776789478368    2    1   16   14
 -0.000178121073164078    2    1   16   15
 4.104801444680623e-06    2    1   16   16
 4.250581576152667e-06    2    1   17    1
 0.008237968807663528    2    1   17    2
 -0.004026221939303033    2    1   17    3
 -1.162646339395331e-05    2    1   17    4
 0.0001576245438282629    2    1   17    5
 -0.01215924539899208    2    1   17    6
 0.00249997477844261    2    1   17    7
 1.459355641902288e-05    2    1   17    8
 0.0005205750117070391    2    1   17    9
 1.80575257439817e-06    2    1   17   10
 0.001126237769409073    2    1   17   11
 7.373467881411985e-06    2    1   17   12
 0.0006626541468107563    2    1   17   13
 1.049002952128836e-06    2    1   17   14
 1.007029608254853e-06    2    1   17   15
 -0.003419787747320124    2    1   17   16
 1.328382661376851e-05    2    1   17   17
 2.745817500293418e-06    2    1   18    1
 -0.0005930802366877321    2    1   18    2
 -0.002110189602572757    2    1   18    3
 -2.963691682714954e-06    2    1   18    4
 1.835294404875186e-06    2    1   18    5
 -0.0003384683555578626    2    1   18    6
 0.0004301481657447838    2    1   18    7
 4.176839790583345e-06    2    1   18    8
 -0.0004597406905613929    2    1   18    9
 4.857014408833411e-06    2    1   18   10
 0.001804348596388385    2    1   18   11
 -1.550594751615875e-06    2    1   18   12
 -0.0001981931150466726    2    1   18   13
 2.581921251942388e-06    2    1   18   14
 3.831182402832432e-06    2    1   18   15
 -6.244252115461582e-05    2    1   18   16
 9.899817012255063e-07    2    1   18   17
 1.722081937779365e-05    2    1   18   18
 0.001463563566044019    2    1   19    1
 1.465892033199823e-06    2    1   19    2
 -4.230272270464322e-06    2    1   19    3
 -0.006573478790023905    2    1   19    4
 -0.001526901525391365    2    1   19    5
 -1.637494055229341e-05    2    1   19    6
 -1.999940179205453e-05    2    1   19    7
 0.001902678894921192    2    1   19    8
 -2.214213679859279e-06    2    1   19    9
 -0.0003424570039292913    2    1   19   10
 -2.571890858975079e-06    2    1   19   11
 -0.0002406560508936924    2    1   19   12
 -1.492775512286899e-06    2    1   19   13
 -0.0002996196032863385    2    1   19   14
 0.0002088583088494408    2    1   19   15
 8.155839873682068e-08    2    1   19   16
 5.045773070130187e-05    2    1   19   17
 -1.890384395206541e-05    2    1   19   18
 5.922889481284462e-06    2    1   19   19
 -2.532875487271289e-07    2    1   20    1
 -0.003784374634980511    2    1   20    2
 -0.007214899379223653    2    1   20    3
 8.957822625462997e-06    2    1   20    4
 -2.227002436311272e-05    2    1   20    5
 0.002005003997988301    2    1   20    6
 -0.0007967147973688269    2    1   20    7
 -1.307913381120936e-06    2    1   20    8
 -0.001173098239280471    2    1   20    9
 -4.449740836332852e-06    2    1   20   10
 -0.0008691985107667359    2    1   20   11
 -1.528032857498447e-06    2    1   20   12
 -0.0009046610689054877    2    1   20   13
 -1.856425028002096e-06    2    1   20   14
 -2.606249719128406e-07    2    1   20   15
 0.0008624200082404731    2    1   20   16
 1.659760597016461e-08    2    1   20   17
 -2.293333934659162e-06    2    1   20   18
 -0.0009100124229867289    2    1   20   19
 6.129867617445385e-06    2    1   20   20
 2.306950318743486e-05    2    1   21    1
 -0.005007744735325468    2    1   21    2
 -0.002518738146930113    2    1   21    3
 2.228077710652721e-06    2    1   21    4
 3.679293015846265e-05    2    1   21    5
 -0.003552514979236728    2    1   21    6
 0.001354733557329958    2    1   21    7
 1.396741297750403e-05    2    1   21    8
 0.0003707556564088873    2    1   21    9
 2.782139531045789e-06    2    1   21   10
 0.0004445176186684117    2    1   21   11
 -2.078062793383158e-06    2    1   21   12
 0.001772490960556827    2    1   21   13
 9.975644623352351e-07    2    1   21   14
 1.419132099878451e-06    2    1   21   15
 -0.00308772063331503    2    1   21   16
 1.556261934168513e-06    2    1   21   17
 7.342673470195384e-07    2    1   21   18
 0.0008915372420573311    2    1   21   19
 -2.787909745467471e-07    2    1   21   20
 5.574646329901379e-06    2    1   21   21
 0.0006776940199716934    2    1   22    1
 9.300814278689778e-06    2    1   22    2
 -2.469939139100954e-06    2    1   22    3
 0.001373879111737064    2    1   22    4
 -0.004313494313377795    2    1   22    5
 -5.257885281658667e-05    2    1   22    6
 -1.588403339507949e-06    2    1   22    7
 0.0003261721161345687    2    1   22    8
 7.379877090245365e-07    2    1   22    9
 0.0005608087948133047    2    1   22   10
 -2.160127791350394e-06    2    1   22   11
 -0.0003156661892037977    2    1   22   12
 -1.225545405709099e-06    2    1   22   13
 0.0002327435943093333    2    1   22   14
 0.0002539225770601529    2    1   22   15
 -1.111729161521602e-07    2    1   22   16
 -0.003391844177320895    2    1   22   17
 4.670323937462704e-05    2    1   22   18
 1.60514029524768e-07    2    1   22   19
 0.001378788870523965    2    1   22   20
 -0.005501397998622767    2    1   22   21
 1.501853460197766e-05    2    1   22   22
 0.225683638280182    2    2    1    1
 0.0001010106186973973    2    2    2    1
 0.2648114819855186    2    2    2    2
 -1.358949283268798e-05    2    2    3    1
 0.002590494304289892    2    2    3    2
 0.2068501376374142    2    2    3    3
 0.01804178607828777    2    2    4    1
 0.000147442230041016    2    2    4    2
 0.0001404931358298633    2    2    4    3
 0.2120131287080682    2    2    4    4
 0.02528635419817004    2    2    5    1
 0.0002396407620214901    2    2    5    2
 -0.0004414592565766117    2    2    5    3
 -0.01524200499729752    2    2    5    4
 0.252931487637857    2    2    5    5
 0.000284847559380579    2    2    6    1
 -0.01981740465354248    2    2    6    2
 0.03101929784570407    2    2    6    3
 2.71387871360284e-05    2    2    6    4
 -9.165983982679908e-05    2    2    6    5
 0.2436279941677988    2    2    6    6
 -6.026211363989318e-05    2    2    7    1
 0.006180704241472258    2    2    7    2
 -0.005197514008141773    2    2    7    3
 -0.0002006448077947629    2    2    7    4
 -9.539751686091435e-05    2    2    7    5
 -0.002070276574851916    2    2    7    6
 0.2337833555862319    2    2    7    7
 -0.00647502384021759    2    2    8    1
 1.284919260940146e-06    2    2    8    2
 -5.035045329343479e-05    2    2    8    3
 0.01224899584427441    2    2    8    4
 0.00515239649541726    2    2    8    5
 8.627809810014856e-05    2    2    8    6
 0.0001949235844340177    2    2    8    7
 0.2216655787690201    2    2    8    8
 -7.473563777619885e-05    2    2    9    1
 0.0002816595482985489    2    2    9    2
 -0.001900199579645657    2    2    9    3
 -5.189169366664667e-06    2    2    9    4
 -3.632499604973738e-05    2    2    9    5
 -0.003188298276974988    2    2    9    6
 -0.0004897041061566161    2    2    9    7
 2.318838840963407e-05    2    2    9    8
 0.1625696720547119    2    2    9    9
 0.001815724822978087    2    2   10    1
 -8.623031093604561e-06    2    2   10    2
 6.620701162405952e-06    2    2   10    3
 0.001878770841244602    2    2   10    4
 4.951065126944815e-05    2    2   10    5
 1.041563168043071e-05    2    2   10    6
 1.137855173959691e-05    2    2   10    7
 -0.001969069158889435    2    2   10    8
 -4.995600431337592e-05    2    2   10    9
 0.2038936563899696    2    2   10   10
 -1.347267999893943e-05    2    2   11    1
 0.001186195813271745    2    2   11    2
 -0.002188797526286667    2    2   11    3
 -3.270413023150238e-05    2    2   11    4
 3.40580666936327e-05    2    2   11    5
 -0.002450391210723099    2    2   11    6
 0.007647842147844841    2    2   11    7
 8.905704804883555e-05    2    2   11    8
 0.01284111535636941    2    2   11    9
 0.0002942569410941118    2    2   11   10
 0.2059802713545043    2    2   11   11
 -0.002027064223801686    2    2   12    1
 2.851583829669654e-05    2    2   12    2
 -1.953690893553336e-05    2    2   12    3
 -0.002083647736616995    2    2   12    4
 0.002262545063015535    2    2   12    5
 -3.158828206196304e-05    2    2   12    6
 -0.0001592121985654465    2    2   12    7
 0.006805498285446789    2    2   12    8
 -3.700753162115563e-05    2    2   12    9
 0.00499394169251253    2    2   12   10
 2.60428152210491e-05    2    2   12   11
 0.1519076993541336    2    2   12   12
 -1.790057636903048e-05    2    2   13    1
 -0.0007032102309980143    2    2   13    2
 -0.006071577411988022    2    2   13    3
 5.570138512683992e-06    2    2   13    4
 -2.902473465360934e-05    2    2   13    5
 0.001816502433486617    2    2   13    6
 -0.004725899167458746    2    2   13    7
 -3.21334696248563e-05    2    2   13    8
 0.001822262418822554    2    2   13    9
 4.074236605583476e-06    2    2   13   10
 0.002373178078493179    2    2   13   11
 1.774981704092651e-05    2    2   13   12
 0.2734192448583019    2    2   13   13
 -0.000454922999944062    2    2   14    1
 1.57231185613817e-06    2    2   14    2
 -4.961470007783367e-07    2    2   14    3
 -0.001083836017525944    2    2   14    4
 0.0002598023755441389    2    2   14    5
 1.444869607375066e-05    2    2   14    6
 -3.708372899189242e-05    2    2   14    7
 0.003655309270981278    2    2   14    8
 1.066496837237266e-05    2    2   14    9
 -0.003759542265212162    2    2   14   10
 1.857204555164975e-05    2    2   14   11
 -0.003530038415413919    2    2   14   12
 2.487778869646913e-06    2    2   14   13
 0.2738310151862987    2    2   14   14
 -7.814338613791362e-05    2    2   15    1
 -3.904288080448967e-07    2    2   15    2
 -8.956196584379861e-06    2    2   15    3
 0.001890229291400862    2    2   15    4
 0.0007349845702825469    2    2   15    5
 -1.426993050237907e-06    2    2   15    6
 -1.664278202569352e-05    2    2   15    7
 -0.001738176334504923    2    2   15    8
 -4.722143785194149e-08    2    2   15    9
 -0.0005529765863864649    2    2   15   10
 1.556845958680904e-05    2    2   15   11
 -0.008704229125049841    2    2   15   12
 -6.386441340191462e-06    2    2   15   13
 -0.002801870970778482    2    2   15   14
 0.270410468400634    2    2   15   15
 3.075368111414121e-05    2    2   16    1
 -0.004276723915593595    2    2   16    2
 0.007211512586706368    2    2   16    3
 3.243171176871569e-05    2    2   16    4
 4.736748633415902e-05    2    2   16    5
 -0.006951665345657064    2    2   16    6
 -0.0002084786849079421    2    2   16    7
 6.506332715820339e-06    2    2   16    8
 -0.0005475110720884351    2    2   16    9
 1.428744863678875e-06    2    2   16   10
 -0.0002806744565433364    2    2   16   11
 -6.183812292173096e-06    2    2   16   12
 0.003170655560123109    2    2   16   13
 7.17520336633049e-06    2    2   16   14
 -5.979335359165186e-06    2    2   16   15
 0.271542607885715    2    2   16   16
 0.004028345062410137    2    2   17    1
 5.372635776638574e-06    2    2   17    2
 -2.126952101259213e-05    2    2   17    3
 -0.003766582577239831    2    2   17    4
 -0.003706761632330598    2    2   17    5
 -5.793846608355826e-05    2    2   17    6
 -2.680674396625884e-05    2    2   17    7
 0.003095519721641959    2    2   17    8
 5.104421412326188e-06    2    2   17    9
 -0.0005674625379398539    2    2   17   10
 1.469473941113867e-06    2    2   17   11
 0.00013096837038185    2    2   17   12
 3.673687390312843e-06    2    2   17   13
 -0.0003194942752928667    2    2   17   14
 -0.0004899998308103091    2    2   17   15
 -7.741227090268635e-06    2    2   17   16
 0.2784799449396526    2    2   17   17
 2.208863416164838e-05    2    2   18    1
 1.444359885705931e-06    2    2   18    2
 -1.251782148881361e-05    2    2   18    3
 0.001405595544008067    2    2   18    4
 0.000333773540246555    2    2   18    5
 2.856442707674669e-06    2    2   18    6
 -3.148636021027853e-05    2    2   18    7
 0.001238931741351707    2    2   18    8
 4.409562338528745e-06    2    2   18    9
 -0.003373361014472598    2    2   18   10
 1.800197131959295e-05    2    2   18   11
 -0.008319899575574444    2    2   18   12
 6.342938468184072e-07    2    2   18   13
 -0.005830147317564345    2    2   18   14
 -0.008465044875735359    2    2   18   15
 -1.970174844964929e-06    2    2   18   16
 -0.0006433047786935622    2    2   18   17
 0.2588141910839543    2    2   18   18
 -9.905215680620901e-06    2    2   19    1
 -0.003330848137513805    2    2   19    2
 -0.001983025057618525    2    2   19    3
 2.800010094371825e-06    2    2   19    4
 1.742701857946039e-05    2    2   19    5
 -0.002729522801971361    2    2   19    6
 -0.00587770833648231    2    2   19    7
 -3.563886099054971e-05    2    2   19    8
 0.001876729080115787    2    2   19    9
 6.947200126021803e-06    2    2   19   10
 0.002399210016329078    2    2   19   11
 1.233474315750785e-05    2    2   19   12
 -0.004888659090023448    2    2   19   13
 -1.09142974728598e-07    2    2   19   14
 -1.097708889002774e-05    2    2   19   15
 -0.001708366140966597    2    2   19   16
 1.133812244748089e-06    2    2   19   17
 -1.187884335080776e-05    2    2   19   18
 0.2699071179147418    2    2   19   19
 -0.001243463743107438    2    2   20    1