 &FCI NORB=  10,NELEC= 7,MS2=3,
  ORBSYM=1,1,1,1,1,1,1,1,1,1,
  ISYM=1,
 &END
 0.9435965253936778    1    1    1    1
 -9.617051678988703e-07    1    1    2    1
 0.8619833638471769    1    1    2    2
 -1.473475941694822e-06    1    1    3    1
 0.0007991502703907992    1    1    3    2
 0.8899846491208079    1    1    3    3
 -0.001712722480020866    1    1    4    1
 1.751137851029159e-06    1    1    4    2
 -2.949796972842711e-05    1    1    4    3
 0.8790490503194643    1    1    4    4
 8.975808127920632e-07    1    1    5    1
 0.002304368025628477    1    1    5    2
 0.01721728428118232    1    1    5    3
 3.38132924113147e-05    1    1    5    4
 0.8953591480536219    1    1    5    5
 0.0001727247033362985    1    1    6    1
 -0.1535651540962009    1    1    6    2
 -0.1883824694068572    1    1    6    3
 9.581387692350579e-06    1    1    6    4
 -0.03067679557468551    1    1    6    5
 0.7233199373200552    1    1    6    6
 -0.2454429597077727    1    1    7    1
 -0.000271722208475078    1    1    7    2
 4.6108553106544e-05    1    1    7    3
 -0.1002390474866463    1    1    7    4
 -1.7117177216118e-05    1    1    7    5
 -3.789854993371755e-05    1    1    7    6
 0.7564456502926519    1    1    7    7
 0.0002751308672571583    1    1    8    1
 -0.1810841637977817    1    1    8    2
 0.1475276487097853    1    1    8    3
 -5.322529819475019e-06    1    1    8    4
 0.07051861520677773    1    1    8    5
 -0.01140439673507534    1    1    8    6
 -4.813423614608926e-05    1    1    8    7
 0.7245635253273072    1    1    8    8
 5.36295149897712e-05    1    1    9    1
 -0.03949157767195526    1    1    9    2
 0.06104779614106188    1    1    9    3
 3.707291316714041e-05    1    1    9    4
 -0.2275633090609273    1    1    9    5
 0.009433548628562802    1    1    9    6
 1.62770830819985e-06    1    1    9    7
 -0.01615741245750141    1    1    9    8
 0.744665480389012    1    1    9    9
 0.1106167201185974    1    1   10    1
 0.0001115829904473155    1    1   10    2
 -3.364631379367601e-06    1    1   10    3
 -0.211899243237346    1    1   10    4
 -5.557213793625309e-05    1    1   10    5
 6.830463813998153e-06    1    1   10    6
 -0.0132927288876032    1    1   10    7
 2.934113000245958e-05    1    1   10    8
 3.323828932533585e-05    1    1   10    9
 0.7495446538910047    1    1   10   10
 -9.617051678988701e-07    2    1    1    1
 0.04133819144523612    2    1    2    1
 -2.834331161151376e-07    2    1    2    2
 0.0001643150708810109    2    1    3    1
 -8.326488608854805e-07    2    1    3    2
 1.004749897671006e-05    2    1    3    3
 -1.990926216866858e-06    2    1    4    1
 -0.002182566203881344    2    1    4    2
 0.0117925141358123    2    1    4    3
 -1.849461241096687e-05    2    1    4    4
 -0.001539752855842802    2    1    5    1
 1.94556515759694e-06    2    1    5    2
 4.189396051167177e-05    2    1    5    3
 -0.01456294892300884    2    1    5    4
 6.708412338701614e-06    2    1    5    5
 -0.009017847489295185    2    1    6    1
 9.485540991484996e-06    2    1    6    2
 -4.771898979488838e-06    2    1    6    3
 -0.001906942348032364    2    1    6    4
 -1.170593664992533e-05    2    1    6    5
 -1.510406990820149e-05    2    1    6    6
 -1.692301566628674e-05    2    1    7    1
 -0.01230616495833065    2    1    7    2
 -0.002023353031158445    2    1    7    3
 4.941960002301943e-06    2    1    7    4
 0.00316358940284902    2    1    7    5
 0.01761789034470039    2    1    7    6
 4.845760282460284e-05    2    1    7    7
 -0.01058295559867899    2    1    8    1
 1.526074057063986e-05    2    1    8    2
 4.950554205027303e-06    2    1    8    3
 0.002049706120669635    2    1    8    4
 9.353030081911117e-06    2    1    8    5
 -4.318783802845079e-05    2    1    8    6
 0.01818357332898098    2    1    8    7
 -2.927089051133877e-05    2    1    8    8
 -0.002012084266751315    2    1    9    1
 2.773790033943646e-06    2    1    9    2
 -9.657909855198942e-06    2    1    9    3
 0.005349981219286618    2    1    9    4
 3.914091940544056e-07    2    1    9    5
 1.623010774728456e-05    2    1    9    6
 -0.001545694752807149    2    1    9    7
 -1.843658175701295e-05    2    1    9    8
 -5.391860539826265e-06    2    1    9    9
 7.412785293277582e-06    2    1   10    1
 0.005836046957668086    2    1   10    2
 -0.002538401052107189    2    1   10    3
 4.679901471529524e-06    2    1   10    4
 0.003258847169081159    2    1   10    5
 -0.003442725064170225    2    1   10    6
 -3.457244313972114e-05    2    1   10    7
 -0.01192940922907831    2    1   10    8
 -0.01333322823114301    2    1   10    9
 -8.534298006526794e-07    2    1   10   10
 0.8619833638471759    2    2    1    1
 -2.834331161146576e-07    2    2    2    1
 0.9451896943539305    2    2    2    2
 -9.830753932590343e-07    2    2    3    1
 0.001441265098123915    2    2    3    2
 0.8802290714257106    2    2    3    3
 0.002782568393983105    2    2    4    1
 -1.732977342045637e-06    2    2    4    2
 2.929414977348931e-05    2    2    4    3
 0.9024743308992745    2    2    4    4
 -2.663145803305509e-06    2    2    5    1
 -0.0008623509833522376    2    2    5    2
 -0.01464077113350535    2    2    5    3
 -3.132124438814256e-05    2    2    5    4
 0.8839457388940084    2    2    5    5
 0.0001549410678385284    2    2    6    1
 -0.1719058564020757    2    2    6    2
 -0.1840835458638354    2    2    6    3
 -7.133354853884781e-07    2    2    6    4
 -0.02145938222833174    2    2    6    5
 0.7391095730920487    2    2    6    6
 -0.2195205755479033    2    2    7    1
 -0.0003006821920121517    2    2    7    2
 3.574892511196511e-05    2    2    7    3
 -0.1050566126343176    2    2    7    4
 -4.397704034907464e-06    2    2    7    5
 4.306237450088992e-05    2    2    7    6
 0.7174028783354747    2    2    7    7
 0.0002474087928368812    2    2    8    1
 -0.2030780424586181    2    2    8    2
 0.1434810060763592    2    2    8    3
 5.414968344188479e-06    2    2    8    4
 0.06271074858266014    2    2    8    5
 0.0251094943431935    2    2    8    6
 4.437498988653146e-05    2    2    8    7
 0.7449201189864076    2    2    8    8
 4.9238835386668e-05    2    2    9    1
 -0.04383442883872529    2    2    9    2
 0.06875257735150501    2    2    9    3
 6.289029270254067e-05    2    2    9    4
 -0.2266917318717234    2    2    9    5
 -0.003001890990560849    2    2    9    6
 -3.334480457570139e-06    2    2    9    7
 -0.0007897659608953492    2    2    9    8
 0.7486243283075307    2    2    9    9
 0.0982651700065625    2    2   10    1
 0.0001237183812608662    2    2   10    2
 -1.405745728598951e-05    2    2   10    3
 -0.2171117429972232    2    2   10    4
 -4.011117561901146e-05    2    2   10    5
 -7.742576424275524e-06    2    2   10    6
 0.01610126078381905    2    2   10    7
 -2.728533968371548e-05    2    2   10    8
 -3.203333980301637e-05    2    2   10    9
 0.7514125577932229    2    2   10   10
 -1.473475941694813e-06    3    1    1    1
 0.0001643150708810145    3    1    2    1
 -9.830753932590258e-07    3    1    2    2
 0.02960592844588756    3    1    3    1
 -5.173139140992994e-06    3    1    3    2
 -1.825116159356528e-06    3    1    3    3
 1.460147219717192e-05    3    1    4    1
 -0.006790072302961679    3    1    4    2
 0.008819600251652087    3    1    4    3
 -2.167668451039119e-05    3    1    4    4
 -0.008119743865407496    3    1    5    1
 -2.197367790194831e-05    3    1    5    2
 -6.966028972563298e-06    3    1    5    3
 0.009008630858868829    3    1    5    4
 1.741784829557525e-05    3    1    5    5
 -0.007513767205368327    3    1    6    1
 1.878400493971632e-06    3    1    6    2
 9.389893950483165e-06    3    1    6    3
 -0.001034533653351287    3    1    6    4
 4.040163773269473e-06    3    1    6    5
 -2.533990319839882e-05    3    1    6    6
 1.136245950188194e-06    3    1    7    1
 0.0005949130509970664    3    1    7    2
 -0.01084837774129735    3    1    7    3
 1.197595512284403e-06    3    1    7    4
 0.001803158973092968    3    1    7    5
 0.01371289344521168    3    1    7    6
 -6.803672116594737e-06    3    1    7    7
 0.005039706623615402    3    1    8    1
 -2.430456881576735e-06    3    1    8    2
 1.060834167078492e-05    3    1    8    3
 0.00445166939790514    3    1    8    4
 3.104825170424576e-06    3    1    8    5
 -6.274327749807652e-06    3    1    8    6
 -0.0126350875912983    3    1    8    7
 2.854516339512738e-05    3    1    8    8
 0.004830629826373394    3    1    9    1
 4.797767488895952e-06    3    1    9    2
 4.989958456209317e-06    3    1    9    3
 -0.001208913608306866    3    1    9    4
 -4.485864426513135e-06    3    1    9    5
 -8.51088246259489e-06    3    1    9    6
 -0.007546063462601561    3    1    9    7
 3.935952318963866e-06    3    1    9    8
 1.048391544259959e-05    3    1    9    9
 -4.792473427883718e-06    3    1   10    1
 0.002085357774096642    3    1   10    2
 0.001513822105499961    3    1   10    3
 6.485011987279447e-06    3    1   10    4
 -0.003205260016820687    3    1   10    5
 -0.003939840991196568    3    1   10    6
 -2.026911377316016e-06    3    1   10    7
 -0.003964587366738798    3    1   10    8
 0.008647980464270923    3    1   10    9
 -1.361138208174304e-05    3    1   10   10
 0.0007991502703909169    3    2    1    1
 -8.326488608854271e-07    3    2    2    1
 0.001441265098123898    3    2    2    2
 -5.173139140992965e-06    3    2    3    1
 0.03477493727581893    3    2    3    2
 0.001396438447317081    3    2    3    3
 -0.004957158363573948    3    2    4    1
 -1.472287947056556e-05    3    2    4    2
 8.063559780898381e-06    3    2    4    3
 0.01627841843712349    3    2    4    4
 -1.992775816058159e-05    3    2    5    1
 0.007823834578037493    3    2    5    2
 0.006517013300558023    3    2    5    3
 1.880501226699882e-05    3    2    5    4
 -0.01335121147804705    3    2    5    5
 1.846390620306818e-06    3    2    6    1
 -0.009294131793174471    3    2    6    2
 -0.008862136878808782    3    2    6    3
 -4.955566215386625e-07    3    2    6    4
 -0.002780867374715198    3    2    6    5
 0.02448589050785948    3    2    6    6
 8.896844920331529e-06    3    2    7    1
 2.687333690946077e-06    3    2    7    2
 -1.326901715700871e-05    3    2    7    3
 -0.0005337635473275039    3    2    7    4
 1.76712429685387e-06    3    2    7    5
 1.439710160389787e-05    3    2    7    6
 -0.0002270281302283185    3    2    7    7
 -2.161825139865198e-06    3    2    8    1
 0.007085803868276574    3    2    8    2
 -0.008031474168279264    3    2    8    3
 5.521198192862269e-06    3    2    8    4
 -0.001995115197430607    3    2    8    5
 0.003170834655794514    3    2    8    6
 -1.860974562350082e-05    3    2    8    7
 -0.02139118237399032    3    2    8    8
 4.421801933819032e-06    3    2    9    1
 0.001172061761335846    3    2    9    2
 -0.004008595880729017    3    2    9    3
 -2.981842875819946e-06    3    2    9    4
 0.004295889399966979    3    2    9    5
 0.004751594996923237    3    2    9    6
 -9.404350215827836e-06    3    2    9    7
 -0.002312700513492909    3    2    9    8
 -0.009836117512809625    3    2    9    9
 0.001788587535988798    3    2   10    1
 3.925617176245618e-06    3    2   10    2
 1.771057506776102e-06    3    2   10    3
 -0.005362251757547956    3    2   10    4
 -5.512289188340742e-06    3    2   10    5
 -4.10825015410338e-06    3    2   10    6
 0.002105612632985431    3    2   10    7
 -4.00644045837902e-06    3    2   10    8
 1.193430836790244e-05    3    2   10    9
 0.01241451950360076    3    2   10   10
 0.8899846491208084    3    3    1    1
 1.004749897671037e-05    3    3    2    1
 0.8802290714257104    3    3    2    2
 -1.825116159356611e-06    3    3    3    1
 0.001396438447317118    3    3    3    2
 0.9546235987460266    3    3    3    3
 -0.01931700827887057    3    3    4    1
 -1.798423510251669e-05    3    3    4    2
 -2.36151973585281e-07    3    3    4    3
 0.8878645741168726    3    3    4    4
 1.490466073042205e-05    3    3    5    1
 -0.01386790819119812    3    3    5    2
 0.0009959408299936288    3    3    5    3
 2.4303351251325e-07    3    3    5    4
 0.8832935447235898    3    3    5    5
 0.0001593946900165897    3    3    6    1
 -0.1582145514532949    3    3    6    2
 -0.204730244169725    3    3    6    3
 4.273581810634082e-06    3    3    6    4
 -0.02325540081363083    3    3    6    5
 0.750557133094696    3    3    6    6
 -0.2270813193388097    3    3    7    1
 -0.0002793650029898863    3    3    7    2
 4.523961848081245e-05    3    3    7    3
 -0.09650575657374411    3    3    7    4
 -1.002118299411242e-05    3    3    7    5
 -5.156756330424047e-06    3    3    7    6
 0.7196668465599318    3    3    7    7
 0.0002555813705541737    3    3    8    1
 -0.1874249401912377    3    3    8    2
 0.159746705016161    3    3    8    3
 -2.683452648130852e-06    3    3    8    4
 0.07071231410914429    3    3    8    5
 -0.01989394372157582    3    3    8    6
 4.432569617200595e-06    3    3    8    7
 0.7467565312732921    3    3    8    8
 4.474591114408236e-05    3    3    9    1
 -0.03671787928025628    3    3    9    2
 0.07090961641574832    3    3    9    3
 4.974173859270618e-05    3    3    9    4
 -0.2251659414174555    3    3    9    5
 -0.01530383357215256    3    3    9    6
 2.124552852967897e-06    3    3    9    7
 -0.007903314561030184    3    3    9    8
 0.7437804417726838    3    3    9    9
 0.1079405254400363    3    3   10    1
 0.0001209810423033528    3    3   10    2
 -9.417324629600409e-06    3    3   10    3
 -0.2177536398621679    3    3   10    4
 -4.767624238600564e-05    3    3   10    5
 4.899113960137086e-07    3    3   10    6
 -0.005569179647876826    3    3   10    7
 2.922521417562395e-06    3    3   10    8
 -1.974652154458211e-06    3    3   10    9
 0.7582987746456149    3    3   10   10
 -0.001712722480020779    4    1    1    1
 -1.990926216866905e-06    4    1    2    1
 0.002782568393983152    4    1    2    2
 1.460147219717191e-05    4    1    3    1
 -0.004957158363573974    4    1    3    2
 -0.01931700827887064    4    1    3    3
 0.03656195269717891    4    1    4    1
 8.896441840629755e-06    4    1    4    2
 9.954619729188858e-06    4    1    4    3
 -0.001709346954725055    4    1    4    4
 -1.632809462415594e-05    4    1    5    1
 0.008521874212177493    4    1    5    2
 -0.0005555562692010995    4    1    5    3
 5.35436299157946e-06    4    1    5    4
 0.01205477795592031    4    1    5    5
 -3.739832545904403e-06    4    1    6    1
 0.0009755244869154357    4    1    6    2
 0.006521542150941606    4    1    6    3
 3.89349779381246e-06    4    1    6    4
 -0.001999490985988778    4    1    6    5
 -0.009483654064934883    4    1    6    6
 -0.003629537416534767    4    1    7    1
 -1.056712602911017e-06    4    1    7    2
 -5.54856663562088e-06    4    1    7    3
 -0.01209014977855789    4    1    7    4
 1.490060259070217e-06    4    1    7    5
 4.17862653281511e-06    4    1    7    6
 0.01730851615549546    4    1    7    7
 7.493513128262753e-07    4    1    8    1
 -0.0005618520712892863    4    1    8    2
 -0.002943311147887886    4    1    8    3
 1.45900294418666e-05    4    1    8    4
 -0.002008719962853693    4    1    8    5
 0.005594981646057913    4    1    8    6
 -1.151877158998442e-05    4    1    8    7
 -0.002653369283874079    4    1    8    8
 8.327963911509086e-06    4    1    9    1
 -0.002954317907969216    4    1    9    2
 -0.001076516095954622    4    1    9    3
 1.599868759666439e-06    4    1    9    4
 -0.003949866654021052    4    1    9    5
 0.007825484388145574    4    1    9    6
 -9.302050610916535e-06    4    1    9    7
 0.0003893604946193458    4    1    9    8
 0.007881084488177223    4    1    9    9
 -0.01055946978136141    4    1   10    1
 -2.777176568356889e-06    4    1   10    2
 -1.286753754202218e-06    4    1   10    3
 0.006977428471658689    4    1   10    4
 -2.881940999742042e-06    4    1   10    5
 -7.087344706333587e-06    4    1   10    6
 0.0157466767462589    4    1   10    7
 -2.214166972258425e-05    4    1   10    8
 5.809221876285173e-06    4    1   10    9
 -0.01978116275618266    4    1   10   10
 1.751137851029312e-06    4    2    1    1
 -0.002182566203881338    4    2    2    1
 -1.732977342045575e-06    4    2    2    2
 -0.006790072302961681    4    2    3    1
 -1.472287947056559e-05    4    2    3    2
 -1.798423510251682e-05    4    2    3    3
 8.896441840629772e-06    4    2    4    1
 0.02529128981432329    4    2    4    2
 -0.007476363255895018    4    2    4    3
 -1.84203655907076e-06    4    2    4    4
 0.005979378735695178    4    2    5    1
 1.608861439858475e-05    4    2    5    2
 -3.306688674604614e-06    4    2    5    3
 -0.005160900525802549    4    2    5    4
 1.111607823990353e-05    4    2    5    5
 0.002130013526346895    4    2    6    1
 3.963096073782785e-06    4    2    6    2
 6.795472205997775e-06    4    2    6    3
 -0.004064106732241049    4    2    6    4
 -1.697175611614512e-06    4    2    6    5
 -1.140528906709991e-05    4    2    6    6
 -5.714875343903633e-07    4    2    7    1
 -0.002848113007092817    4    2    7    2
 0.003378410526198095    4    2    7    3
 -1.363128578860314e-05    4    2    7    4
 -0.00156321388987301    4    2    7    5
 -0.001076673817291942    4    2    7    6
 2.008845552752299e-05    4    2    7    7
 -0.0002360586521855948    4    2    8    1
 -1.392133215522103e-06    4    2    8    2
 -2.695612668376034e-06    4    2    8    3
 -0.009465703227316638    4    2    8    4
 -2.477288384149156e-06    4    2    8    5
 6.033128953296563e-06    4    2    8    6
 0.007204005728851436    4    2    8    7
 -1.843936029547889e-06    4    2    8    8
 -0.002232412079768523    4    2    9    1
 -4.293088559429765e-06    4    2    9    2
 -5.551364362857992e-07    4    2    9    3
 -0.0008061867943849149    4    2    9    4
 -4.384780493015903e-06    4    2    9    5
 5.824306850795672e-06    4    2    9    6
 0.004321229906265047    4    2    9    7
 -1.830406796171179e-06    4    2    9    8
 8.090648935828527e-06    4    2    9    9
 -2.846416798970008e-06    4    2   10    1
 -0.007406271280622371    4    2   10    2
 0.001096090211726165    4    2   10    3
 7.573377425602675e-06    4    2   10    4
 0.00230236915561321    4    2   10    5
 0.007276808380390971    4    2   10    6
 1.83419678430386e-05    4    2   10    7
 0.01473328421343648    4    2   10    8
 -0.00210119979996248    4    2   10    9
 -2.259830897397718e-05    4    2   10   10
 -2.949796972842713e-05    4    3    1    1
 0.01179251413581229    4    3    2    1
 2.929414977348936e-05    4    3    2    2
 0.008819600251652085    4    3    3    1
 8.063559780898364e-06    4    3    3    2
 -2.361519735852971e-07    4    3    3    3
 9.954619729188856e-06    4    3    4    1
 -0.007476363255895019    4    3    4    2
 0.03501122839760883    4    3    4    3
 -2.692125943838053e-07    4    3    4    4
 -0.008358861859078866    4    3    5    1
 -1.539956563213086e-05    4    3    5    2
 3.695866409680267e-07    4    3    5    3
 0.0004620858165834846    4    3    5    4
 -4.31678274228588e-07    4    3    5    5
 -0.004494442319539413    4    3    6    1
 -5.394792567809231e-06    4    3    6    2
 6.707998210646073e-07    4    3    6    3
 -0.008128670800316554    4    3    6    4
 1.376340215276263e-06    4    3    6    5
 -1.054466668750901e-07    4    3    6    6
 3.775860768953855e-06    4    3    7    1
 -0.002541631053884524    4    3    7    2
 -0.008141576414309439    4    3    7    3
 1.73016417479877e-06    4    3    7    4
 0.003420247827543213    4    3    7    5
 0.01422997884943693    4    3    7    6
 -5.377882137312883e-06    4    3    7    7
 -0.00198652694520802    4    3    8    1
 -2.984507614711959e-06    4    3    8    2
 9.812427678644071e-07    4    3    8    3
 0.01005914266501534    4    3    8    4
 1.164226191595729e-06    4    3    8    5
 1.257765242926586e-07    4    3    8    6
 -0.003310341134716703    4    3    8    7
 2.376853726434381e-06    4    3    8    8
 0.002542934646244124    4    3    9    1
 3.743982986563299e-06    4    3    9    2
 2.243838195061203e-06    4    3    9    3
 0.003702092844258159    4    3    9    4
 5.075115657340613e-07    4    3    9    5
 -5.930523654224197e-06    4    3    9    6
 -0.007331203355286903    4    3    9    7
 2.350829442884187e-06    4    3    9    8
 1.441471286203696e-06    4    3    9    9
 -4.510492076105299e-06    4    3   10    1
 0.003535855737514274    4    3   10    2
 -0.008554877542291018    4    3   10    3
 -1.020228716503318e-07    4    3   10    4
 -0.001455775303637708    4    3   10    5
 0.009008322436859208    4    3   10    6
 -2.877353047944424e-06    4    3   10    7
 -0.01788268179101169    4    3   10    8
 -0.003314187178545733    4    3   10    9
 1.030149637762916e-06    4    3   10   10
 0.8790490503194641    4    4    1    1
 -1.849461241096645e-05    4    4    2    1
 0.9024743308992746    4    4    2    2
 -2.167668451039124e-05    4    4    3    1
 0.01627841843712348    4    4    3    2
 0.8878645741168724    4    4    3    3
 -0.001709346954725103    4    4    4    1
 -1.842036559070733e-06    4    4    4    2
 -2.692125943837266e-07    4    4    4    3
 0.9616725160369354    4    4    4    4
 -9.459363794855984e-06    4    4    5    1
 0.009309463540148112    4    4    5    2
 0.0001672384905966061    4    4    5    3
 1.004271858087532e-06    4    4    5    4
 0.8806038354020921    4    4    5    5
 0.0001711341328739038    4    4    6    1
 -0.169853579472253    4    4    6    2
 -0.194264587573044    4    4    6    3
 4.911274105508183e-06    4    4    6    4
 -0.02801337843925921    4    4    6    5
 0.7426867092476519    4    4    6    6
 -0.2291261452069076    4    4    7    1
 -0.0002845659661020969    4    4    7    2
 4.235256400976596e-05    4    4    7    3
 -0.1145726874871391    4    4    7    4
 -1.145432799444023e-05    4    4    7    5
 2.347915031561766e-06    4    4    7    6
 0.730917843470451    4    4    7    7
 0.00025799853531063    4    4    8    1
 -0.1919073490032615    4    4    8    2
 0.1452439211711348    4    4    8    3
 1.043551774180282e-07    4    4    8    4
 0.06397900663910164    4    4    8    5
 0.008254354682564816    4    4    8    6
 4.125062294181032e-06    4    4    8    7
 0.7218108016976066    4    4    8    8
 5.211258995356271e-05    4    4    9    1
 -0.04338758387039536    4    4    9    2
 0.06554443634434397    4    4    9    3
 5.587087760905619e-05    4    4    9    4
 -0.2294377343178476    4    4    9    5
 0.004881862259622696    4    4    9    6
 -2.440888824015458e-06    4    4    9    7
 -0.005373655282456187    4    4    9    8
 0.7424258507759953    4    4    9    9
 0.1043689913136442    4    4   10    1
 0.000117656823813108    4    4   10    2
 -9.135390295435529e-06    4    4   10    3
 -0.240673391547011    4    4   10    4
 -4.847982566453985e-05    4    4   10    5
 -5.050482344360106e-07    4    4   10    6
 0.0243853771772886    4    4   10    7
 2.304755581135812e-07    4    4   10    8
 -1.109523496598777e-05    4    4   10    9
 0.7872776782830506    4    4   10   10
 8.975808127922897e-07    5    1    1    1
 -0.001539752855842808    5    1    2    1
 -2.663145803305384e-06    5    1    2    2
 -0.0081197438654075    5    1    3    1
 -1.992775816058158e-05    5    1    3    2
 1.490466073042211e-05    5    1    3    3
 -1.63280946241559e-05    5    1    4    1
 0.005979378735695179    5    1    4    2
 -0.008358861859078854    5    1    4    3
 -9.459363794855962e-06    5    1    4    4
 0.02723012352891702    5    1    5    1
 -3.62515353447405e-06    5    1    5    2
 -9.647966422662324e-06    5    1    5    3
 -0.006902913323767254    5    1    5    4
 1.154953320695357e-06    5    1    5    5
 0.001677206408826697    5    1    6    1
 5.189150826216558e-06    5    1    6    2
 -1.478906145497843e-06    5    1    6    3
 0.001228934600130158    5    1    6    4
 9.519839340593117e-06    5    1    6    5
 -5.574322296702427e-06    5    1    6    6
 3.781481680391345e-07    5    1    7    1
 9.264016153505077e-07    5    1    7    2
 0.004027981015889364    5    1    7    3
 3.957217440614342e-06    5    1    7    4
 -0.009120847063520576    5    1    7    5
 -0.003584583031338259    5    1    7    6
 -3.978472525043163e-06    5    1    7    7
 0.001348883849763082    5    1    8    1
 -3.952430052962092e-06    5    1    8    2
 4.918198301156256e-06    5    1    8    3
 -0.004242576305079636    5    1    8    4
 1.064069302079037e-05    5    1    8    5
 -1.48061347598595e-06    5    1    8    6
 0.001010635251133938    5    1    8    7
 1.923113730183387e-05    5    1    8    8
 -0.008692604939718004    5    1    9    1
 -6.064676758141087e-07    5    1    9    2
 4.062065344677158e-06    5    1    9    3
 0.0007230326061556678    5    1    9    4
 2.111808345817668e-08    5    1    9    5
 -1.905988739155241e-05    5    1    9    6
 0.01500330674230521    5    1    9    7
 -1.267041883874065e-05    5    1    9    8
 -8.641355458461829e-07    5    1    9    9
 3.6676083953343e-06    5    1   10    1
 -0.002155717555287568    5    1   10    2
 0.001499450351087937    5    1   10    3
 1.318530917048511e-06    5    1   10    4
 0.005791460654180946    5    1   10    5
 -0.0006878253645380205    5    1   10    6
 -3.215141508413583e-06    5    1   10    7
 0.008175203876205404    5    1   10    8
 -0.01056790988076732    5    1   10    9
 -5.947306212816271e-06    5    1   10   10
 0.00230436802562837    5    2    1    1
 1.945565157597078e-06    5    2    2    1
 -0.000862350983352412    5    2    2    2
 -2.197367790194831e-05    5    2    3    1
 0.007823834578037477    5    2    3    2
 -0.01386790819119814    5    2    3    3
 0.008521874212177486    5    2    4    1
 1.608861439858475e-05    5    2    4    2
 -1.539956563213086e-05    5    2    4    3
 0.009309463540148111    5    2    4    4
 -3.625153534474059e-06    5    2    5    1
 0.03329341321937762    5    2    5    2
 0.007409399945128312    5    2    5    3
 -6.513909010423204e-06    5    2    5    4
 -0.000962811352919249    5    2    5    5
 5.561068146253721e-06    5    2    6    1
 -0.002429761196888625    5    2    6    2
 0.001939368576490532    5    2    6    3
 2.664977880829743e-06    5    2    6    4
 -0.009488738052440783    5    2    6    5
 0.00322062077620761    5    2    6    6
 -0.001075392429863557    5    2    7    1
 -1.178941259749226e-06    5    2    7    2
 5.461358456942362e-06    5    2    7    3
 -0.004088429409979698    5    2    7    4
 -1.247819927438828e-05    5    2    7    5
 -4.918226820537564e-06    5    2    7    6
 0.007099818486504596    5    2    7    7
 -4.227940076524525e-06    5    2    8    1
 0.004637952171207317    5    2    8    2
 -0.004561460822143381    5    2    8    3
 -5.198301593140901e-06    5    2    8    4
 -0.00885615293929286    5    2    8    5
 0.001442623776620877    5    2    8    6
 5.466264009042772e-07    5    2    8    7
 -0.01648366698470812    5    2    8    8
 -6.245189896082661e-07    5    2    9    1
 -0.008770633213439152    5    2    9    2
 -0.003637373837493853    5    2    9    3
 4.844046040151102e-07    5    2    9    4
 -0.0007118934508532978    5    2    9    5
 0.01962811462872019    5    2    9    6
 1.891194426541187e-05    5    2    9    7
 0.00886997402085982    5    2    9    8
 0.002055064274243656    5    2    9    9
 -0.002383060876126659    5    2   10    1
 -7.168318241309021e-06    5    2   10    2
 2.515061630420232e-06    5    2   10    3
 -0.0008275387232957523    5    2   10    4
 6.765411644940844e-06    5    2   10    5
 8.846576474401353e-07    5    2   10    6
 0.005714551632307717    5    2   10    7
 1.286140977412721e-05    5    2   10    8
 -1.159366671667541e-05    5    2   10    9
 0.00136433867060298    5    2   10   10
 0.01721728428118241    5    3    1    1
 4.189396051167209e-05    5    3    2    1
 -0.01464077113350573    5    3    2    2
 -6.966028972563281e-06    5    3    3    1
 0.006517013300558007    5    3    3    2
 0.00099594082999384    5    3    3    3
 -0.0005555562692010716    5    3    4    1
 -3.306688674604583e-06    5    3    4    2
 3.695866409680345e-07    5    3    4    3
 0.0001672384905969589    5    3    4    4
 -9.647966422662404e-06    5    3    5    1
 0.007409399945128332    5    3    5    2
 0.03606276203285472    5    3    5    3
 1.117153153513495e-07    5    3    5    4
 0.0009727670357607603    5    3    5    5
 -3.763507896590943e-06    5    3    6    1
 0.001611370084584522    5    3    6    2
 -0.003607632657618133    5    3    6    3
 3.738568166804362e-07    5    3    6    4
 -0.01138749983885803    5    3    6    5
 0.004914922128939056    5    3    6    6
 -0.005246122009808322    5    3    7    1
 -6.659301649729485e-06    5    3    7    2
 -9.965243840812383e-07    5    3    7    3
 0.0005588761078923081    5    3    7    4
 2.645890778020191e-06    5    3    7    5
 2.625875618563909e-06    5    3    7    6
 0.009650213765268579    5    3    7    7
 -6.941020499005813e-06    5    3    8    1
 0.00568882105523948    5    3    8    2
 0.00149186901977726    5    3    8    3
 8.01284793460429e-07    5    3    8    4
 0.006353039928101552    5    3    8    5
 -0.01139894612227733    5    3    8    6
 -4.8273986637172e-07    5    3    8    7
 -0.003414717791195525    5    3    8    8
 4.526567028920177e-07    5    3    9    1
 -0.0002082892921903422    5    3    9    2
 -0.0107964015941905    5    3    9    3
 1.016637832722453e-07    5    3    9    4
 0.003227406307888531    5    3    9    5
 0.0195219777520671    5    3    9    6