 &FCI NORB=   5,NELEC= 7,MS2=3,
  ORBSYM=1,1,1,1,1,
  ISYM=1,
 &END
 0.9365881164760338    1    1    1    1
 0.0006700939810627795    1    1    2    1
 0.8532428456556396    1    1    2    2
 0.0003247572787764679    1    1    3    1
 -1.56602564793518e-05    1    1    3    2
 0.8588372697556397    1    1    3    3
 0.0003775742181742225    1    1    4    1
 9.19570668904895e-05    1    1    4    2
 0.003529085144408035    1    1    4    3
 0.8457941094598384    1    1    4    4
 -0.001191536013698315    1    1    5    1
 -0.000639568309477318    1    1    5    2
 0.001413566410976465    1    1    5    3
 0.0005949368185325137    1    1    5    4
 0.8846055613690551    1    1    5    5
 0.0006700939810627819    2    1    1    1
 0.04122849176320898    2    1    2    1
 0.0007759261378900857    2    1    2    2
 0.0002860563870409084    2    1    3    1
 0.0002758098836792284    2    1    3    2
 -0.01794251761835509    2    1    3    3
 9.786981196919722e-05    2    1    4    1
 9.503260906994728e-05    2    1    4    2
 -0.007816201003967144    2    1    4    3
 0.01048669735905902    2    1    4    4
 0.0001558519075627464    2    1    5    1
 -0.000126361237409107    2    1    5    2
 0.001647214175150786    2    1    5    3
 5.527306709833547e-06    2    1    5    4
 0.009459513431586415    2    1    5    5
 0.8532428456556393    2    2    1    1
 0.0007759261378899805    2    2    2    1
 0.9344903533569798    2    2    2    2
 -0.0002892605155746314    2    2    3    1
 0.0006064776192054583    2    2    3    2
 0.8630102639999648    2    2    3    3
 0.0002134660235120836    2    2    4    1
 0.00028290425631088    2    2    4    2
 -0.003641586110574135    2    2    4    3
 0.877349199244075    2    2    4    4
 -0.0008288310000062341    2    2    5    1
 -0.0002879608951993345    2    2    5    2
 -0.0002584663606421754    2    2    5    3
 -0.001696816194555142    2    2    5    4
 0.8463199568976727    2    2    5    5
 0.000324757278776366    3    1    1    1
 0.0002860563870408482    3    1    2    1
 -0.0002892605155748224    3    1    2    2
 0.03130855129877182    3    1    3    1
 0.009494089583169435    3    1    3    2
 0.0003706199963739572    3    1    3    3
 -0.001890583010100668    3    1    4    1
 0.003784526216088242    3    1    4    2
 0.0008386104821742009    3    1    4    3
 0.00145117497142143    3    1    4    4
 -0.0004504579873814829    3    1    5    1
 -0.0009168864186569086    3    1    5    2
 0.001021785950459795    3    1    5    3
 0.01343868347949516    3    1    5    4
 -0.0003391768176504118    3    1    5    5
 -1.566025647935785e-05    3    2    1    1
 0.0002758098836792227    3    2    2    1
 0.0006064776192053246    3    2    2    2
 0.009494089583169416    3    2    3    1
 0.0285897985496606    3    2    3    2
 0.000651932877786206    3    2    3    3
 0.004120606483740082    3    2    4    1
 0.001732303744661546    3    2    4    2
 -0.0004164218147680066    3    2    4    3
 0.001506723464887034    3    2    4    4
 -0.0007576066747765623    3    2    5    1
 0.0004205659853733615    3    2    5    2
 -0.004273245921827071    3    2    5    3
 0.01101818579452899    3    2    5    4
 7.204992485022113e-05    3    2    5    5
 0.8588372697556398    3    3    1    1
 -0.01794251761835504    3    3    2    1
 0.8630102639999649    3    3    2    2
 0.0003706199963742372    3    3    3    1
 0.0006519328777860318    3    3    3    2
 0.9058985693167368    3    3    3    3
 -0.001260962785379883    3    3    4    1
 0.001092791387746191    3    3    4    2
 -0.0005825596266582476    3    3    4    3
 0.8382399266582131    3    3    4    4
 -0.003008098580185344    3    3    5    1
 0.008289755454195632    3    3    5    2
 0.0006002827504116078    3    3    5    3
 0.0005251159806594112    3    3    5    4
 0.8421694936057083    3    3    5    5
 0.0003775742181739643    4    1    1    1
 9.786981196920617e-05    4    1    2    1
 0.0002134660235121891    4    1    2    2
 -0.001890583010100692    4    1    3    1
 0.004120606483740056    4    1    3    2
 -0.00126096278537994    4    1    3    3
 0.03820996727594665    4    1    4    1
 -0.004959409772318383    4    1    4    2
 -0.0005936549506177656    4    1    4    3
 0.0003889195221796458    4    1    4    4
 -0.0004258974830390601    4    1    5    1
 0.0002719421314270342    4    1    5    2
 -0.01677600472899271    4    1    5    3
 -0.0009665739852213662    4    1    5    4
 0.002082748419275672    4    1    5    5
 9.195706689066995e-05    4    2    1    1
 9.50326090699143e-05    4    2    2    1
 0.0002829042563106081    4    2    2    2
 0.00378452621608822    4    2    3    1
 0.001732303744661512    4    2    3    2
 0.001092791387746237    4    2    3    3
 -0.004959409772318339    4    2    4    1
 0.02160429076981333    4    2    4    2
 -0.0004864012751310458    4    2    4    3
 0.0002734909004917971    4    2    4    4
 -0.000267281130643507    4    2    5    1
 0.0007437452470030786    4    2    5    2
 0.004234231029182753    4    2    5    3
 0.004070962615352341    4    2    5    4
 -0.0004580177518398899    4    2    5    5
 0.003529085144408451    4    3    1    1
 -0.007816201003967151    4    3    2    1
 -0.003641586110574232    4    3    2    2
 0.0008386104821742749    4    3    3    1
 -0.0004164218147679345    4    3    3    2
 -0.0005825596266581602    4    3    3    3
 -0.0005936549506177863    4    3    4    1
 -0.0004864012751309941    4    3    4    2
 0.03488956732497322    4    3    4    3
 0.0001293208791776656    4    3    4    4
 0.00334253211972925    4    3    5    1
 -0.01537480090874723    4    3    5    2
 -0.0003355339035555293    4    3    5    3
 9.783055196596952e-05    4    3    5    4
 -0.0004670108468396314    4    3    5    5
 0.845794109459839    4    4    1    1
 0.01048669735905918    4    4    2    1
 0.8773491992440746    4    4    2    2
 0.001451174971421664    4    4    3    1
 0.001506723464887039    4    4    3    2
 0.838239926658213    4    4    3    3
 0.000388919522179594    4    4    4    1
 0.0002734909004915881    4    4    4    2
 0.0001293208791778518    4    4    4    3
 0.9071310104351857    4    4    4    4
 0.000961914681285729    4    4    5    1
 -0.008427746927422902    4    4    5    2
 0.0003058597743147723    4    4    5    3
 -0.0001842416031740936    4    4    5    4
 0.8423356089800874    4    4    5    5
 -0.001191536013698273    5    1    1    1
 0.0001558519075627501    5    1    2    1
 -0.0008288310000063062    5    1    2    2
 -0.0004504579873814296    5    1    3    1
 -0.000757606674776561    5    1    3    2
 -0.003008098580185455    5    1    3    3
 -0.000425897483039057    5    1    4    1
 -0.0002672811306435259    5    1    4    2
 0.003342532119729259    5    1    4    3
 0.0009619146812857872    5    1    4    4
 0.02052293483146759    5    1    5    1
 -0.004485185500675652    5    1    5    2
 0.0003047779542758674    5    1    5    3
 -0.0008783128582193811    5    1    5    4
 -0.001172704665874196    5    1    5    5
 -0.000639568309477497    5    2    1    1
 -0.0001263612374090995    5    2    2    1
 -0.0002879608951991707    5    2    2    2
 -0.0009168864186569159    5    2    3    1
 0.0004205659853733731    5    2    3    2
 0.008289755454195708    5    2    3    3
 0.0002719421314270392    5    2    4    1
 0.0007437452470031113    5    2    4    2
 -0.01537480090874726    5    2    4    3
 -0.008427746927423058    5    2    4    4
 -0.004485185500675631    5    2    5    1
 0.03961579831641907    5    2    5    2
 0.0002363810135771427    5    2    5    3
 0.0003535526671724885    5    2    5    4
 -0.0002665253626195221    5    2    5    5
 0.001413566410976467    5    3    1    1
 0.001647214175150801    5    3    2    1
 -0.0002584663606421528    5    3    2    2
 0.001021785950459816    5    3    3    1
 -0.004273245921827059    5    3    3    2
 0.0006002827504114812    5    3    3    3
 -0.01677600472899272    5    3    4    1
 0.004234231029182742    5    3    4    2
 -0.0003355339035555052    5    3    4    3
 0.0003058597743148225    5    3    4    4
 0.0003047779542758674    5    3    5    1
 0.0002363810135771367    5    3    5    2
 0.03515686296155617    5    3    5    3
 0.0001356475357589153    5    3    5    4
 0.0004628369033419129    5    3    5    5
 0.0005949368185324751    5    4    1    1
 5.527306709860224e-06    5    4    2    1
 -0.001696816194555037    5    4    2    2
 0.01343868347949514    5    4    3    1
 0.01101818579452901    5    4    3    2
 0.0005251159806593978    5    4    3    3
 -0.0009665739852213741    5    4    4    1
 0.004070962615352341    5    4    4    2
 9.783055196598053e-05    5    4    4    3
 -0.0001842416031741107    5    4    4    4
 -0.0008783128582193783    5    4    5    1
 0.0003535526671725013    5    4    5    2
 0.0001356475357589257    5    4    5    3
 0.0353126471658818    5    4    5    4
 -0.0003080536900611562    5    4    5    5
 0.8846055613690549    5    5    1    1
 0.009459513431586406    5    5    2    1
 0.8463199568976721    5    5    2    2
 -0.0003391768176503326    5    5    3    1
 7.20499248501161e-05    5    5    3    2
 0.8421694936057087    5    5    3    3
 0.002082748419275567    5    5    4    1
 -0.0004580177518396931    5    5    4    2
 -0.0004670108468395358    5    5    4    3
 0.8423356089800871    5    5    4    4
 -0.001172704665874232    5    5    5    1
 -0.0002665253626195337    5    5    5    2
 0.0004628369033419364    5    5    5    3
 -0.0003080536900611213    5    5    5    4
 0.9148242821406848    5    5    5    5
 -5.458308837754228    1    1  0  0
 -0.004196701128186045    2    1  0  0
 -5.461825116286261    2    2  0  0
 -0.001053631587245553    3    1  0  0
 -0.002636298038698659    3    2  0  0
 -5.361994281199264    3    3  0  0
 -0.00201607982435811    4    1  0  0
 -0.001298719318217128    4    2  0  0
 0.0006337702321429793    4    3  0  0
 -5.365571109176211    4    4  0  0
 0.005986360212440272    5    1  0  0
 0.002111209531460913    5    2  0  0
 -0.003948166304803937    5    3  0  0
 0.002247201533677615    5    4  0  0
 -5.396827860419484    5    5  0  0
 -3884.361221068869  0  0  0  0
