 &FCI NORB=   5,NELEC= 7,MS2=3,
  ORBSYM=1,1,1,1,1,
  ISYM=1,
 &END
 0.9426074649012998    1    1    1    1
 -1.059756509190268e-05    1    1    2    1
 0.854930727817657    1    1    2    2
 -6.598125316399376e-05    1    1    3    1
 0.0001811511065581826    1    1    3    2
 0.8622961518585756    1    1    3    3
 -1.879038608395111e-05    1    1    4    1
 0.0005046707157812291    1    1    4    2
 0.0001657956194301307    1    1    4    3
 0.8637418416382392    1    1    4    4
 4.918881668911949e-05    1    1    5    1
 -0.0008578880134169359    1    1    5    2
 0.0002165836754660262    1    1    5    3
 0.0009566949775852109    1    1    5    4
 0.9050550844365074    1    1    5    5
 -1.059756509201106e-05    2    1    1    1
 0.04136449967959908    2    1    2    1
 2.960965370939308e-07    2    1    2    2
 1.068547632203307e-05    2    1    3    1
 -1.657112608974035e-05    2    1    3    2
 0.006051763033849204    2    1    3    3
 4.945418464982759e-05    2    1    4    1
 3.144110594850448e-06    2    1    4    2
 0.01735228343315676    2    1    4    3
 -0.006069552308997321    2    1    4    4
 0.0003567306577175861    2    1    5    1
 1.255437136346192e-06    2    1    5    2
 -0.0005971376805103279    2    1    5    3
 6.545269206001858e-05    2    1    5    4
 1.511539340762087e-06    2    1    5    5
 0.8549307278176564    2    2    1    1
 2.960965371104845e-07    2    2    2    1
 0.9302344877568161    2    2    2    2
 -5.061310818451417e-05    2    2    3    1
 0.0002160684559631594    2    2    3    2
 0.8779629044803383    2    2    3    3
 -1.985941330611846e-05    2    2    4    1
 0.0006370445052050898    2    2    4    2
 -4.415045806245365e-05    2    2    4    3
 0.87820685438477    2    2    4    4
 5.520495473430667e-05    2    2    5    1
 -0.0002332964113463901    2    2    5    2
 -0.0002704927083755683    2    2    5    3
 -0.001065096165302988    2    2    5    4
 0.8566463238678954    2    2    5    5
 -6.598125316409378e-05    3    1    1    1
 1.068547632204252e-05    3    1    2    1
 -5.061310818446085e-05    3    1    2    2
 0.0361382769110096    3    1    3    1
 -0.002995868946119816    3    1    3    2
 -8.19712425087988e-05    3    1    3    3
 1.217575981686891e-05    3    1    4    1
 -0.008836767382716704    3    1    4    2
 0.0001175732952466086    3    1    4    3
 0.0009074441583928917    3    1    4    4
 -0.0001284406427077365    3    1    5    1
 0.0003107392117193025    3    1    5    2
 -4.28129327178716e-05    3    1    5    3
 0.01578574827505942    3    1    5    4
 -0.00112027666114596    3    1    5    5
 0.0001811511065581235    3    2    1    1
 -1.657112608972651e-05    3    2    2    1
 0.0002160684559634282    3    2    2    2
 -0.002995868946119811    3    2    3    1
 0.02456331846062977    3    2    3    2
 0.0002167291887619301    3    2    3    3
 -0.008328617006028721    3    2    4    1
 0.0001057677729445969    3    2    4    2
 0.00029995785540952    3    2    4    3
 0.0001388641249482353    3    2    4    4
 0.0002996548794242226    3    2    5    1
 0.000118096963460426    3    2    5    2
 0.00859505048310984    3    2    5    3
 -0.003060938331032128    3    2    5    4
 0.0002507966918613084    3    2    5    5
 0.8622961518585748    3    3    1    1
 0.006051763033849311    3    3    2    1
 0.8779629044803382    3    3    2    2
 -8.197124250867351e-05    3    3    3    1
 0.0002167291887620746    3    3    3    2
 0.9239430149935816    3    3    3    3
 -0.0002457643761196406    3    3    4    1
 2.480059114239713e-05    3    3    4    2
 0.0004384986484329818    3    3    4    3
 0.8552456472099995    3    3    4    4
 0.0001652903944334876    3    3    5    1
 -0.01702900594607376    3    3    5    2
 -4.217801235303551e-05    3    3    5    3
 -0.0001479397548639008    3    3    5    4
 0.8634676016363524    3    3    5    5
 -1.879038608372092e-05    4    1    1    1
 4.945418464978485e-05    4    1    2    1
 -1.985941330583915e-05    4    1    2    2
 1.217575981686439e-05    4    1    3    1
 -0.00832861700602871    4    1    3    2
 -0.0002457643761195771    4    1    3    3
 0.03621885825899005    4    1    4    1
 0.003007586831610498    4    1    4    2
 -0.0005006742530100089    4    1    4    3
 4.984789246836612e-07    4    1    4    4
 -0.0005302304053205511    4    1    5    1
 -3.893620647195827e-05    4    1    5    2
 -0.01605866601835761    4    1    5    3
 6.150742156289633e-05    4    1    5    4
 0.0002423947372672484    4    1    5    5
 0.0005046707157811319    4    2    1    1
 3.144110594863454e-06    4    2    2    1
 0.0006370445052049916    4    2    2    2
 -0.008836767382716704    4    2    3    1
 0.0001057677729445869    4    2    3    2
 2.480059114243363e-05    4    2    3    3
 0.003007586831610507    4    2    4    1
 0.0251944684949123    4    2    4    2
 3.38926850412205e-05    4    2    4    3
 0.0006372485656973823    4    2    4    4
 -2.834675623412734e-05    4    2    5    1
 0.0005113517412569866    4    2    5    2
 -0.003061513830891275    4    2    5    3
 -0.008934400978107255    4    2    5    4
 0.001153353295772084    4    2    5    5
 0.0001657956194299628    4    3    1    1
 0.01735228343315675    4    3    2    1
 -4.415045806255767e-05    4    3    2    2
 0.000117573295246605    4    3    3    1
 0.0002999578554095009    4    3    3    2
 0.0004384986484329485    4    3    3    3
 -0.000500674253009994    4    3    4    1
 3.389268504122702e-05    4    3    4    2
 0.03582580432084841    4    3    4    3
 -0.0001246009137139327    4    3    4    4
 0.0003066705413205973    4    3    5    1
 0.006021593649128165    4    3    5    2
 2.382428026573227e-05    4    3    5    3
 7.799018611128859e-06    4    3    5    4
 0.000357310626894854    4    3    5    5
 0.863741841638239    4    4    1    1
 -0.006069552308997314    4    4    2    1
 0.8782068543847705    4    4    2    2
 0.0009074441583928472    4    4    3    1
 0.0001388641249484292    4    4    3    2
 0.8552456472099996    4    4    3    3
 4.98478924909714e-07    4    4    4    1
 0.0006372485656974282    4    4    4    2
 -0.0001246009137138597    4    4    4    3
 0.9267967756335684    4    4    4    4
 -5.779475049133218e-05    4    4    5    1
 0.01742861558725635    4    4    5    2
 -4.341209901982384e-05    4    4    5    3
 -7.792079903154649e-05    4    4    5    4
 0.8659833515773011    4    4    5    5
 4.91888166890291e-05    5    1    1    1
 0.0003567306577176085    5    1    2    1
 5.52049547341079e-05    5    1    2    2
 -0.0001284406427077294    5    1    3    1
 0.0002996548794242292    5    1    3    2
 0.0001652903944335804    5    1    3    3
 -0.0005302304053204955    5    1    4    1
 -2.834675623413271e-05    5    1    4    2
 0.0003066705413206339    5    1    4    3
 -5.779475049094331e-05    5    1    4    4
 0.01999717202716654    5    1    5    1
 -6.368284317551486e-06    5    1    5    2
 0.000513253125299755    5    1    5    3
 -0.0001270394691295246    5    1    5    4
 4.898802934281828e-05    5    1    5    5
 -0.0008578880134167735    5    2    1    1
 1.255437136351912e-06    5    2    2    1
 -0.00023329641134621    5    2    2    2
 0.0003107392117193008    5    2    3    1
 0.0001180969634604422    5    2    3    2
 -0.01702900594607364    5    2    3    3
 -3.893620647197407e-05    5    2    4    1
 0.0005113517412569913    5    2    4    2
 0.006021593649128168    5    2    4    3
 0.01742861558725652    5    2    4    4
 -6.368284317538385e-06    5    2    5    1
 0.04152812321872347    5    2    5    2
 -2.149996469800494e-05    5    2    5    3
 -0.0002824380284877105    5    2    5    4
 -0.0001404672290531995    5    2    5    5
 0.0002165836754659811    5    3    1    1
 -0.0005971376805103082    5    3    2    1
 -0.0002704927083757006    5    3    2    2
 -4.281293271786861e-05    5    3    3    1
 0.008595050483109837    5    3    3    2
 -4.217801235299299e-05    5    3    3    3
 -0.01605866601835761    5    3    4    1
 -0.003061513830891271    5    3    4    2
 2.382428026573642e-05    5    3    4    3
 -4.34120990196464e-05    5    3    4    4
 0.0005132531252997446    5    3    5    1
 -2.149996469802317e-05    5    3    5    2
 0.03616593218115381    5    3    5    3
 -9.064771815675196e-05    5    3    5    4
 -3.88377422496085e-05    5    3    5    5
 0.0009566949775853216    5    4    1    1
 6.545269206000561e-05    5    4    2    1
 -0.001065096165302828    5    4    2    2
 0.01578574827505941    5    4    3    1
 -0.003060938331032135    5    4    3    2
 -0.0001479397548639652    5    4    3    3
 6.150742156286397e-05    5    4    4    1
 -0.008934400978107269    5    4    4    2
 7.79901861110735e-06    5    4    4    3
 -7.792079903164273e-05    5    4    4    4
 -0.0001270394691295279    5    4    5    1
 -0.0002824380284877072    5    4    5    2
 -9.06477181567534e-05    5    4    5    3
 0.03566966602517081    5    4    5    4
 -8.751795234338575e-05    5    4    5    5
 0.9050550844365068    5    5    1    1
 1.511539340866631e-06    5    5    2    1
 0.8566463238678952    5    5    2    2
 -0.001120276661146048    5    5    3    1
 0.000250796691861151    5    5    3    2
 0.8634676016363531    5    5    3    3
 0.0002423947372671992    5    5    4    1
 0.001153353295772144    5    5    4    2
 0.0003573106268949785    5    5    4    3
 0.8659833515773003    5    5    4    4
 4.898802934272413e-05    5    5    5    1
 -0.0001404672290531678    5    5    5    2
 -3.883774224957275e-05    5    5    5    3
 -8.751795234345178e-05    5    5    5    4
 0.9475124214753002    5    5    5    5
 -5.516030036167386    1    1  0  0
 -5.797197304831625e-05    2    1  0  0
 -5.482133846266742    2    2  0  0
 0.0004976251847081225    3    1  0  0
 -0.001214121436232229    3    2  0  0
 -5.432318230923615    3    3  0  0
 8.395520558832907e-05    4    1  0  0
 -0.003498728119755001    4    2  0  0
 -0.002160785244746484    4    3  0  0
 -5.447513537733088    4    4  0  0
 -0.0003151522733792684    5    1  0  0
 0.002191221274096226    5    2  0  0
 0.0001382038967012511    5    3  0  0
 0.0004973514831060366    5    4  0  0
 -5.530158464577349    5    5  0  0
 -4398.043038145123  0  0  0  0
