 &FCI NORB=  10,NELEC= 7,MS2=3,
  ORBSYM=1,1,1,1,1,1,1,1,1,1,
  ISYM=1,
 &END
 0.9387763914885537    1    1    1    1
 -0.0002229265505400537    1    1    2    1
 0.8623397775350643    1    1    2    2
 -0.0002626129150948816    1    1    3    1
 -8.787310926250641e-05    1    1    3    2
 0.8671110614848435    1    1    3    3
 -0.0005984977446883998    1    1    4    1
 -5.689920253241421e-05    1    1    4    2
 0.001136231971234283    1    1    4    3
 0.8900638110371706    1    1    4    4
 9.702144805082815e-05    1    1    5    1
 7.86206534427338e-05    1    1    5    2
 -9.924871311065415e-05    1    1    5    3
 -0.00113737533687609    1    1    5    4
 0.8900259678765853    1    1    5    5
 -0.01323629502167035    1    1    6    1
 -0.01865502078600014    1    1    6    2
 -0.231151694060283    1    1    6    3
 -0.0006365498551980395    1    1    6    4
 0.0014408584400492    1    1    6    5
 0.7128377942225762    1    1    6    6
 0.01526242451041584    1    1    7    1
 0.007687171853583136    1    1    7    2
 -0.001555380670528958    1    1    7    3
 -0.2444842596146503    1    1    7    4
 -0.01398252244991486    1    1    7    5
 0.0007197075354469418    1    1    7    6
 0.7328020896253528    1    1    7    7
 -0.0001371752685950395    1    1    8    1
 0.04604548324995937    1    1    8    2
 -0.004950570004085023    1    1    8    3
 0.01609622777767257    1    1    8    4
 -0.2396274297622107    1    1    8    5
 -0.0002587347425255696    1    1    8    6
 -0.000626353043457863    1    1    8    7
 0.7355077761956882    1    1    8    8
 -0.004040486881228772    1    1    9    1
 0.2279101360250442    1    1    9    2
 -0.01756983194410828    1    1    9    3
 0.004769665158932581    1    1    9    4
 0.04888657966707525    1    1    9    5
 0.0002596434816439866    1    1    9    6
 -0.0004650030686466566    1    1    9    7
 -0.004477689322115097    1    1    9    8
 0.7148703131397744    1    1    9    9
 0.2719791754768253    1    1   10    1
 0.002980241334227014    1    1   10    2
 -0.01130648439960257    1    1   10    3
 0.01441322435426261    1    1   10    4
 0.001348071061885475    1    1   10    5
 -0.001363952323552995    1    1   10    6
 0.002212190687168216    1    1   10    7
 -0.0004523229506586093    1    1   10    8
 -0.001282205493782943    1    1   10    9
 0.7507832793416443    1    1   10   10
 -0.0002229265505401038    2    1    1    1
 0.04166982517233453    2    1    2    1
 -0.0001398453444285916    2    1    2    2
 1.024918704833813e-05    2    1    3    1
 0.0004235079779372102    2    1    3    2
 -0.00157342416085041    2    1    3    3
 6.001654076328382e-06    2    1    4    1
 -4.076364001904028e-05    2    1    4    2
 6.268383813295716e-05    2    1    4    3
 0.0004238701852333716    2    1    4    4
 -5.12866784134512e-06    2    1    5    1
 -2.133030023613983e-06    2    1    5    2
 0.0006571675504050748    2    1    5    3
 0.01858379742096734    2    1    5    4
 0.0006095727844747549    2    1    5    5
 -0.0008724957016261692    2    1    6    1
 -0.0006633643119193298    2    1    6    2
 0.0006200652389081668    2    1    6    3
 1.873467560545329e-05    2    1    6    4
 -0.0002014338102901491    2    1    6    5
 -0.0007262289696104963    2    1    6    6
 0.0003590906950541066    2    1    7    1
 0.0007323632153912672    2    1    7    2
 -3.208416434569652e-05    2    1    7    3
 -0.0004695695751345129    2    1    7    4
 -0.005143093960748113    2    1    7    5
 -0.0002050282448466715    2    1    7    6
 0.001951696604818311    2    1    7    7
 0.002095188685825667    2    1    8    1
 -8.085230762651349e-05    2    1    8    2
 -0.0001803014894339078    2    1    8    3
 -0.004832083722132396    2    1    8    4
 0.0001179197310412309    2    1    8    5
 2.975976899203773e-05    2    1    8    6
 0.01350539091651107    2    1    8    7
 -0.001301032981182303    2    1    8    8
 0.0103028330273992    2    1    9    1
 -0.0005584771285915171    2    1    9    2
 -5.607923287373275e-05    2    1    9    3
 0.0007568323713048531    2    1    9    4
 0.0001426700711367366    2    1    9    5
 -0.002187257819086777    2    1    9    6
 -0.001218961332306777    2    1    9    7
 -0.0002440732883629187    2    1    9    8
 -0.0008449588011697975    2    1    9    9
 0.0004102989612179039    2    1   10    1
 0.01335938418641155    2    1   10    2
 7.402758222076604e-05    2    1   10    3
 5.248697518244227e-05    2    1   10    4
 0.0003273093587410907    2    1   10    5
 -0.002417996430317949    2    1   10    6
 0.000850713326540231    2    1   10    7
 0.005252076697198444    2    1   10    8
 0.02968984028135817    2    1   10    9
 1.785323653636988e-05    2    1   10   10
 0.8623397775350641    2    2    1    1
 -0.0001398453444286859    2    2    2    1
 0.9503288558160469    2    2    2    2
 -0.001029695702411    2    2    3    1
 -5.149612361138528e-05    2    2    3    2
 0.9156595279563809    2    2    3    3
 -0.0004883847072278479    2    2    4    1
 -4.476549059237926e-05    2    2    4    2
 -0.001067953896505149    2    2    4    3
 0.8751462659085358    2    2    4    4
 9.529401453069862e-05    2    2    5    1
 4.998248482215573e-05    2    2    5    2
 6.195588254680385e-05    2    2    5    3
 0.001277202040753135    2    2    5    4
 0.8736068878483715    2    2    5    5
 -0.01107571319510031    2    2    6    1
 -0.02129310709389803    2    2    6    2
 -0.2499076288737044    2    2    6    3
 0.0002640999786781545    2    2    6    4
 0.001355450213382333    2    2    6    5
 0.7456161156819484    2    2    6    6
 0.01346943905563026    2    2    7    1
 0.008751491986625112    2    2    7    2
 -0.0009026056321571867    2    2    7    3
 -0.2391966970781727    2    2    7    4
 -0.01430013688351218    2    2    7    5
 -0.0006024878741352132    2    2    7    6
 0.7233182942248082    2    2    7    7
 -0.0002634795529643596    2    2    8    1
 0.05268828423044666    2    2    8    2
 -0.005467466142422838    2    2    8    3
 0.01515284273698999    2    2    8    4
 -0.2339912784354417    2    2    8    5
 -0.0002290991614618395    2    2    8    6
 0.001447722779264045    2    2    8    7
 0.7272611484842636    2    2    8    8
 -0.004227071935305993    2    2    9    1
 0.2608052190198928    2    2    9    2
 -0.01905098215670961    2    2    9    3
 0.00483381751529643    2    2    9    4
 0.04778423633972081    2    2    9    5
 -0.001900825173903147    2    2    9    6
 0.001293868367119437    2    2    9    7
 0.008809726273622641    2    2    9    8
 0.7695861603721696    2    2    9    9
 0.2397827938270373    2    2   10    1
 0.002875187181176349    2    2   10    2
 -0.01338005012113634    2    2   10    3
 0.0138581719987593    2    2   10    4
 0.00137282153890339    2    2   10    5
 0.00183856445617414    2    2   10    6
 -4.259872596448936e-05    2    2   10    7
 -9.655612046066439e-05    2    2   10    8
 0.0009128802354926545    2    2   10    9
 0.7104966285309773    2    2   10   10
 -0.0002626129150949483    3    1    1    1
 1.024918704834169e-05    3    1    2    1
 -0.001029695702410987    3    1    2    2
 0.04194373072366577    3    1    3    1
 0.0007079401609964086    3    1    3    2
 -0.0001868646596422145    3    1    3    3
 -0.0005630975912462207    3    1    4    1
 -4.293227215307891e-05    3    1    4    2
 0.0003082238412779649    3    1    4    3
 0.01873912684464867    3    1    4    4
 3.107274681928386e-05    3    1    5    1
 -0.0003613784853868912    3    1    5    2
 3.334789163979937e-05    3    1    5    3
 5.123278384570744e-05    3    1    5    4
 -0.0182578729995008    3    1    5    5
 -0.01024660785936349    3    1    6    1
 -6.032389102620654e-05    3    1    6    2
 -0.0001756784204886179    3    1    6    3
 0.0001700987340385954    3    1    6    4
 -3.370067543203115e-05    3    1    6    5
 0.003639462149612257    3    1    6    6
 -3.622801202731571e-05    3    1    7    1
 5.692504455840392e-07    3    1    7    2
 0.0007133341097581365    3    1    7    3
 -0.005630563599357059    3    1    7    4
 0.0002698598347727107    3    1    7    5
 -0.001319555106165135    3    1    7    6
 0.01316016491241633    3    1    7    7
 -0.0002308027420608205    3    1    8    1
 4.260597101628067e-05    3    1    8    2
 3.933008266313382e-05    3    1    8    3
 0.0003491464404141521    3    1    8    4
 0.004937864482158074    3    1    8    5
 2.438206830692927e-05    3    1    8    6
 -0.001585356038926181    3    1    8    7
 -0.01247684687416557    3    1    8    8
 -0.0007581929478806214    3    1    9    1
 -0.0004252957959300035    3    1    9    2
 9.955073612121756e-06    3    1    9    3
 0.0001196438575041982    3    1    9    4
 -0.001152342805235881    3    1    9    5
 0.00011941526104533    3    1    9    6
 -0.0002003352423815944    3    1    9    7
 0.002676131904387273    3    1    9    8
 -0.001271148624074757    3    1    9    9
 -0.0001464323440287185    3    1   10    1
 1.704875549711622e-05    3    1   10    2
 0.01378072212020869    3    1   10    3
 0.0002452232511314364    3    1   10    4
 -1.525943548145324e-05    3    1   10    5
 -0.03017409868815828    3    1   10    6
 -0.0004388970229823217    3    1   10    7
 -0.0005900037830316839    3    1   10    8
 -0.002334802222154113    3    1   10    9
 -0.003552784139408502    3    1   10   10
 -8.787310926247895e-05    3    2    1    1
 0.0004235079779372163    3    2    2    1
 -5.149612361148136e-05    3    2    2    2
 0.000707940160996401    3    2    3    1
 0.02026441781589773    3    2    3    2
 -5.141079796231084e-05    3    2    3    3
 -2.028593611904883e-05    3    2    4    1
 0.0005664174940487888    3    2    4    2
 -1.645180674567009e-05    3    2    4    3
 0.0005589041056444505    3    2    4    4
 -0.0003105831769891758    3    2    5    1
 -4.687241599822946e-05    3    2    5    2
 -0.0005496655351426845    3    2    5    3
 0.0003897418206302956    3    2    5    4
 -0.000642193009437964    3    2    5    5
 -9.692441859388779e-05    3    2    6    1
 -0.006946771414643147    3    2    6    2
 -0.0005729828811002564    3    2    6    3
 -8.249867360554054e-07    3    2    6    4
 0.0001996765212163499    3    2    6    5
 0.002056555129908531    3    2    6    6
 5.535170292119451e-06    3    2    7    1
 -0.0001979922470275166    3    2    7    2
 0.0002657788928598516    3    2    7    3
 -0.0001708545202457255    3    2    7    4
 1.221431056842412e-05    3    2    7    5
 -0.000443169580528231    3    2    7    6
 0.0003950170073620614    3    2    7    7
 0.0001409758317402764    3    2    8    1
 -0.0001250521695948276    3    2    8    2
 0.001619456791374664    3    2    8    3
 8.371599286850747e-05    3    2    8    4
 0.0001540483055746    3    2    8    5
 -0.002845453681267357    3    2    8    6
 0.0002188852871299642    3    2    8    7
 -0.0006068561350628135    3    2    8    8
 -7.735599048030202e-05    3    2    9    1
 -0.0005457174170226028    3    2    9    2
 0.007066858032131463    3    2    9    3
 0.0001784863258932772    3    2    9    4
 -3.42907762802865e-05    3    2    9    5
 -0.01223099971445178    3    2    9    6
 -0.0005520626714902479    3    2    9    7
 -0.0003509928490243154    3    2    9    8
 -0.001939639872773818    3    2    9    9
 6.770661607158183e-06    3    2   10    1
 -0.0003526230692190823    3    2   10    2
 0.0002795676983740971    3    2   10    3
 9.921639796638644e-06    3    2   10    4
 -0.0001080353031626169    3    2   10    5
 -0.000695732776981062    3    2   10    6
 -1.690581860619821e-05    3    2   10    7
 4.796823166129336e-05    3    2   10    8
 -0.0002864991906575995    3    2   10    9
 -0.0001518784846279074    3    2   10   10
 0.8671110614848432    3    3    1    1
 -0.001573424160850547    3    3    2    1
 0.9156595279563813    3    3    2    2
 -0.0001868646596421612    3    3    3    1
 -5.141079796205022e-05    3    3    3    2
 0.9621263947461736    3    3    3    3
 -0.001184597674816006    3    3    4    1
 -9.041836135441911e-06    3    3    4    2
 4.606390536887714e-05    3    3    4    3
 0.8806730962184067    3    3    4    4
 3.14471828722125e-05    3    3    5    1
 0.001177785339146589    3    3    5    2
 -3.377304725056047e-05    3    3    5    3
 7.071367313163906e-05    3    3    5    4
 0.877762303661048    3    3    5    5
 -0.01109564121400938    3    3    6    1
 -0.02038311148692696    3    3    6    2
 -0.2672098638295237    3    3    6    3
 -8.41002661129818e-05    3    3    6    4
 0.001378814798106166    3    3    6    5
 0.7747974256002099    3    3    6    6
 0.01395509250865168    3    3    7    1
 0.008348043966860244    3    3    7    2
 -0.001304223115432735    3    3    7    3
 -0.2422515418784871    3    3    7    4
 -0.01415347990601781    3    3    7    5
 0.0003485301611892524    3    3    7    6
 0.726994217309786    3    3    7    7
 -0.0003010716673935018    3    3    8    1
 0.05019730764545113    3    3    8    2
 -0.005794768202515031    3    3    8    3
 0.01563968892004572    3    3    8    4
 -0.2369165420730565    3    3    8    5
 0.0006850287968037051    3    3    8    6
 0.0003167340258413617    3    3    8    7
 0.7287619741318202    3    3    8    8
 -0.004486895907596585    3    3    9    1
 0.2500302936980168    3    3    9    2
 -0.02036501295213134    3    3    9    3
 0.004833413851654144    3    3    9    4
 0.04873978946148817    3    3    9    5
 0.002078557886998318    3    3    9    6
 0.0006130674881210642    3    3    9    7
 0.003482228347112413    3    3    9    8
 0.7497881581408701    3    3    9    9
 0.2427226767900872    3    3   10    1
 0.002363784073848187    3    3   10    2
 -0.0142802570534204    3    3   10    3
 0.01375904365692125    3    3   10    4
 0.001349719242189524    3    3   10    5
 0.002396901436455721    3    3   10    6
 0.0002719557588268707    3    3   10    7
 -0.0003196549973597947    3    3   10    8
 -0.0004863023935957368    3    3   10    9
 0.7137540290410639    3    3   10   10
 -0.0005984977446884018    4    1    1    1
 6.001654076328872e-06    4    1    2    1
 -0.0004883847072279544    4    1    2    2
 -0.0005630975912462238    4    1    3    1
 -2.028593611901535e-05    4    1    3    2
 -0.001184597674815759    4    1    3    3
 0.02567615882876493    4    1    4    1
 -0.000332710069208997    4    1    4    2
 -0.009656610134466696    4    1    4    3
 -0.000594820594054155    4    1    4    4
 0.000602856199281282    4    1    5    1
 -0.009516532675663849    4    1    5    2
 0.0004960671311406755    4    1    5    3
 -2.114654247434557e-05    4    1    5    4
 8.032404136444773e-05    4    1    5    5
 4.348510994185223e-06    4    1    6    1
 4.40709801286136e-06    4    1    6    2
 0.0006473166607336365    4    1    6    3
 0.003488589375582796    4    1    6    4
 0.0001627171234155236    4    1    6    5
 -0.0008211427174973115    4    1    6    6
 -0.009746675081344344    4    1    7    1
 0.0002389115053519146    4    1    7    2
 0.003590719272532036    4    1    7    3
 0.0006806231529155567    4    1    7    4
 -0.000126077461377017    4    1    7    5
 -0.005880600146985712    4    1    7    6
 -0.002411199539963826    4    1    7    7
 0.0003519725966658346    4    1    8    1
 0.003818642794648048    4    1    8    2
 -0.0003840298859727452    4    1    8    3
 5.491910977835879e-05    4    1    8    4
 -0.0008291769738953188    4    1    8    5
 0.0002282350327585426    4    1    8    6
 0.0002675149824999367    4    1    8    7
 0.002434415938011326    4    1    8    8
 0.0002649785188875054    4    1    9    1
 -0.001149364179660781    4    1    9    2
 8.292039706139512e-06    4    1    9    3
 6.84690991486088e-05    4    1    9    4
 -0.004362230780544493    4    1    9    5
 8.146121772876378e-05    4    1    9    6
 0.000392904937888279    4    1    9    7
 0.005553312574780956    4    1    9    8
 -0.002674968871749223    4    1    9    9
 0.0003258029301588656    4    1   10    1
 -1.615289730821467e-05    4    1   10    2
 -0.0003132002100712773    4    1   10    3
 0.01045768240637331    4    1   10    4
 0.0002092471456696017    4    1   10    5
 0.0008435617599593245    4    1   10    6
 -0.01540094743505204    4    1   10    7
 0.0007672482166973649    4    1   10    8
 0.000358591989402012    4    1   10    9
 0.001444827191805876    4    1   10   10
 -5.689920253277888e-05    4    2    1    1
 -4.076364001895505e-05    4    2    2    1
 -4.476549059235252e-05    4    2    2    2
 -4.293227215302284e-05    4    2    3    1
 0.0005664174940488346    4    2    3    2
 -9.041836135579618e-06    4    2    3    3
 -0.0003327100692090053    4    2    4    1
 0.03670464791340535    4    2    4    2
 -0.0003252648685207784    4    2    4    3
 -3.064374843616637e-05    4    2    4    4
 -0.008902340084200513    4    2    5    1
 -0.0005964597711447632    4    2    5    2
 -0.01634127545846874    4    2    5    3
 0.0005570634442407479    4    2    5    4
 -4.118897811230219e-05    4    2    5    5
 -1.108290920157902e-05    4    2    6    1
 -0.0001773907802204761    4    2    6    2
 -3.008046627420943e-05    4    2    6    3
 -0.0008888497118692527    4    2    6    4
 0.006025228336972096    4    2    6    5
 0.0001897417604812211    4    2    6    6
 0.0002866577229879002    4    2    7    1
 -0.01120847373822776    4    2    7    2
 0.0004365652470604924    4    2    7    3
 0.0004425111104204075    4    2    7    4
 -0.000260521214928598    4    2    7    5
 0.001037620168391691    4    2    7    6
 -0.00150459065813914    4    2    7    7
 0.004541677778736731    4    2    8    1
 0.001019154151293947    4    2    8    2
 0.005382851954081773    4    2    8    3
 0.002613909130617255    4    2    8    4
 9.744021292120722e-05    4    2    8    5
 -0.0111222248655335    4    2    8    6
 -0.004001905818697877    4    2    8    7
 0.0001414250421558998    4    2    8    8
 -0.001061677686321537    4    2    9    1
 0.0001257005501291053    4    2    9    2
 -0.0009131698950174485    4    2    9    3
 0.01249927458538786    4    2    9    4
 0.00024579847260595    4    2    9    5
 0.001797646947649641    4    2    9    6
 -0.02422847550795697    4    2    9    7
 0.001067635330629869    4    2    9    8
 0.001114126154434647    4    2    9    9
 -4.749539277828162e-05    4    2   10    1
 0.0005662702919794491    4    2   10    2
 -4.447254839443019e-05    4    2   10    3
 8.362589712043766e-05    4    2   10    4
 -0.00329379278807373    4    2   10    5
 -1.614431423261963e-05    4    2   10    6
 0.0002549058953484058    4    2   10    7
 0.003571943263818135    4    2   10    8
 0.0006939209142898615    4    2   10    9
 -7.34372898740549e-05    4    2   10   10
 0.001136231971234404    4    3    1    1
 6.26838381329267e-05    4    3    2    1
 -0.001067953896504996    4    3    2    2
 0.0003082238412779777    4    3    3    1
 -1.645180674576839e-05    4    3    3    2
 4.606390536892457e-05    4    3    3    3
 -0.009656610134466692    4    3    4    1
 -0.0003252648685208223    4    3    4    2
 0.0362471625181074    4    3    4    3
 2.755498931257614e-05    4    3    4    4
 -0.0005536592191419063    4    3    5    1
 0.01598041349695438    4    3    5    2
 1.639928296742211e-06    4    3    5    3
 8.194405365394312e-06    4    3    5    4
 8.000322313614121e-05    4    3    5    5
 0.0001137988374669572    4    3    6    1
 6.965911922935987e-05    4    3    6    2
 1.041402788949535e-05    4    3    6    3
 -0.01252889104165035    4    3    6    4
 -0.0004510896808931014    4    3    6    5
 0.0001345502180569147    4    3    6    6
 0.004534085783152697    4    3    7    1
 -0.0001419356380447658    4    3    7    2
 -0.01150302376178512    4    3    7    3
 -5.44161466569605e-05    4    3    7    4
 0.0001654604668272409    4    3    7    5
 0.02370322358536161    4    3    7    6
 0.001176953275967321    4    3    7    7
 -0.0001156037660732932    4    3    8    1
 -0.004815946318197766    4    3    8    2
 0.0007426164733554804    4    3    8    3
 -0.0003097452962681977    4    3    8    4
 0.001044583809134374    4    3    8    5
 -0.0006451094177626182    4    3    8    6
 1.824629667116708e-05    4    3    8    7
 -0.004375799383898758    4    3    8    8
 -9.591903322051362e-05    4    3    9    1
 0.0005930048204576619    4    3    9    2
 0.0002242135805764051    4    3    9    3
 -0.001015716982241618    4    3    9    4
 0.005624334786886474    4    3    9    5
 -0.0005044195581144442    4    3    9    6
 0.00129168445673968    4    3    9    7
 -0.01052165909066414    4    3    9    8
 0.003593346091189476    4    3    9    9
 0.0002664489692749499    4    3   10    1
 3.753985898472269e-05    4    3   10    2
 0.0007270827113972409    4    3   10    3
 -0.004190757438230874    4    3   10    4
 -0.0001370849944762768    4    3   10    5
 -0.0017499821997609    4    3   10    6
 0.005944186437597836    4    3   10    7
 -0.0001563920889969968    4    3   10    8
 -0.0002230300309846111    4    3   10    9
 -0.0001915611677975655    4    3   10   10
 0.8900638110371691    4    4    1    1
 0.0004238701852334441    4    4    2    1
 0.8751462659085359    4    4    2    2
 0.01873912684464899    4    4    3    1
 0.000558904105644713    4    4    3    2
 0.8806730962184066    4    4    3    3
 -0.0005948205940543223    4    4    4    1
 -3.064374843625734e-05    4    4    4    2
 2.755498931265945e-05    4    4    4    3
 0.943770926977182    4    4    4    4
 0.0001281933673487775    4    4    5    1
 -0.001036404873503357    4    4    5    2
 -4.773062282575101e-05    4    4    5    3
 5.601309384873305e-05    4    4    5    4
 0.8708421001080102    4    4    5    5
 -0.0168619308880831    4    4    6    1
 -0.0196451237627703    4    4    6    2
 -0.2421745496723843    4    4    6    3
 0.0001352109108053425    4    4    6    4
 0.001447309533106646    4    4    6    5
 0.7223377655825485    4    4    6    6
 0.01416423527778186    4    4    7    1
 0.008062237135284154    4    4    7    2
 -0.000669384478991006    4    4    7    3
 -0.2672785629716933    4    4    7    4
 -0.01415822659908459    4    4    7    5
 -0.0005503604918680828    4    4    7    6
 0.7660822458015697    4    4    7    7
 -0.0002598170172558015    4    4    8    1
 0.04868043254395311    4    4    8    2
 -0.005192423946808423    4    4    8    3
 0.0172514865454262    4    4    8    4
 -0.2362924123374007    4    4    8    5
 -0.0001922380401603717    4    4    8    6
 -0.002678824952430953    4    4    8    7
 0.7229012587445048    4    4    8    8
 -0.004285108371860577    4    4    9    1
 0.2383095761561224    4    4    9    2
 -0.01830646032132664    4    4    9    3
 0.005338792900574681    4    4    9    4
 0.04763814399259454    4    4    9    5
 1.91459414860094e-05    4    4    9    6
 -0.0009407918840094353    4    4    9    7
 0.0003099838717852019    4    4    9    8
 0.7210254894200896    4    4    9    9
 0.2562983792086502    4    4   10    1
 0.003069282280896702    4    4   10    2
 -0.005243046120568575    4    4   10    3
 0.01586228038428034    4    4   10    4
 0.001367221189555832    4    4   10    5
 -0.01460438651182752    4    4   10    6
 -0.001355032716725362    4    4   10    7
 -0.0004340391019072847    4    4   10    8
 -0.001093584428632669    4    4   10    9
 0.7202996189945661    4    4   10   10
 9.702144805035707e-05    5    1    1    1
 -5.128667841297298e-06    5    1    2    1
 9.529401453071855e-05    5    1    2    2
 3.107274681931866e-05    5    1    3    1
 -0.0003105831769892123    5    1    3    2
 3.144718287168853e-05    5    1    3    3
 0.0006028561992812895    5    1    4    1
 -0.008902340084200532    5    1    4    2
 -0.0005536592191418942    5    1    4    3
 0.0001281933673485117    5    1    4    4
 0.0248859091580697    5    1    5    1
 -0.0004149610822161531    5    1    5    2
 0.009247528818601559    5    1    5    3
 -0.0003406400762797595    5    1    5    4
 9.955871930071305e-05    5    1    5    5
 4.074186007742183e-05    5    1    6    1
 0.0001270130947635609    5    1    6    2
 1.248840088402651e-05    5    1    6    3
 0.0005122096078791998    5    1    6    4
 -0.004339967267561198    5    1    6    5
 -8.920533132534768e-05    5    1    6    6
 -0.0008273144782036413    5    1    7    1
 0.003834457187789289    5    1    7    2
 -5.156318292225752e-05    5    1    7    3
 -0.0001699099448934048    5    1    7    4
 0.0006782570885248888    5    1    7    5
 -0.0004158211581768439    5    1    7    6
 0.0002772927672209815    5    1    7    7
 -0.009121165996049181    5    1    8    1
 -0.0001771817220642187    5    1    8    2
 -0.003699797696984259    5    1    8    3
 -0.000743663703670393    5    1    8    4
 -0.0001581722083469649    5    1    8    5
 0.006706950929438561    5    1    8    6
 1.476013191681382e-05    5    1    8    7
 0.0004082305192389431    5    1    8    8
 0.001863118828348532    5    1    9    1
 -3.380080007315913e-05    5    1    9    2
 0.0006079810364240488    5    1    9    3
 -0.004087935102703795    5    1    9    4
 -0.0005727374838860134    5    1    9    5
 -0.001140729608649722    5    1    9    6
 0.005789725038072937    5    1    9    7
 0.0006193667710552139    5    1    9    8
 -0.0005493192956885518    5    1    9    9
 0.0001075440295267922    5    1   10    1
 -0.0002246692895281218    5    1   10    2
 1.809230727295522e-05    5    1   10    3
 0.0002311030566619411    5    1   10    4
 0.009893309693117785    5    1   10    5
 7.043118144058977e-05    5    1   10    6
 -0.001132533157945732    5    1   10    7
 -0.01411434154045513    5    1   10    8
 0.002565783787506478    5    1   10    9
 0.0002636600439763783    5    1   10   10
 7.862065344284045e-05    5    2    1    1
 -2.133030023627943e-06    5    2    2    1
 4.998248482211281e-05    5    2    2    2
 -0.0003613784853869065    5    2    3    1
 -4.687241599822725e-05    5    2    3    2
 0.001177785339146713    5    2    3    3
 -0.009516532675663858    5    2    4    1
 -0.0005964597711447743    5    2    4    2
 0.01598041349695441    5    2    4    3
 -0.001036404873503226    5    2    4    4
 -0.0004149610822161585    5    2    5    1
 0.03661697781578343    5    2    5    2
 0.0002937736171750719    5    2    5    3
 2.882265663882031e-06    5    2    5    4
 6.905778550338044e-05    5    2    5    5
 0.0001632580158526287    5    2    6    1
 7.724352672239262e-05    5    2    6    2
 -0.0003918477981666968    5    2    6    3
 -0.005372616731856496    5    2    6    4
 -0.001171281892212295    5    2    6    5
 0.0008034104249765768    5    2    6    6
 0.004884494101631586    5    2    7    1
 -0.0003374435517773234    5    2    7    2
 -0.004925796760132621    5    2    7    3
 0.0002623806132842672    5    2    7    4
 0.0004111474444936865    5    2    7    5
 0.01116840966871046    5    2    7    6
 0.000230399044148427    5    2    7    7
 -0.0002432453015232736    5    2    8    1
 -0.01085541394009781    5    2    8    2
 0.0001746686656955902    5    2    8    3
 -0.0002079080907126715    5    2    8    4
 0.002538296458378261    5    2    8    5
 0.001426603083269911    5    2    8    6
 -0.0007646249873932588    5    2    8    7
 -0.009465549544528469    5    2    8    8
 -8.975401412778589e-05    5    2    9    1
 0.002264822600449382    5    2    9    2
 7.713186955438359e-05    5    2    9    3
 -0.0006279023998899556    5    2    9    4
 0.01274238123456473    5    2    9    5
 -0.0004170460064334123    5    2    9    6
 -0.0001658524265669206    5    2    9    7
 -0.02264110185840496    5    2    9    8
 0.009605924289970497    5    2    9    9
 -0.0002311290679107625    5    2   10    1
 4.753362817703745e-05    5    2   10    2
 0.0001707883723666251    5    2   10    3
 -0.004136872358922198    5    2   10    4
 2.79046324229018e-05    5    2   10    5
 -0.0004028688063072703    5    2   10    6
 0.004954677954674991    5    2   10    7
 -0.0002331187143480144    5    2   10    8
 -2.269165183837183e-05    5    2   10    9
 -0.0005041928668571274    5    2   10   10
 -9.924871311041613e-05    5    3    1    1
 0.0006571675504050507    5    3    2    1
 6.195588254681431e-05    5    3    2    2
 3.334789163980225e-05    5    3    3    1
 -0.0005496655351426542    5    3    3    2
 -3.377304725028813e-05    5    3    3    3
 0.0004960671311406768    5    3    4    1
 -0.01634127545846872    5    3    4    2
 1.639928296712741e-06    5    3    4    3
 -4.773062282562754e-05    5    3    4    4
 0.009247528818601603    5    3    5    1
 0.0002937736171750869    5    3    5    2
 0.03692104926364144    5    3    5    3
 -3.580639604710691e-06    5    3    5    4
 -3.519619350465267e-05    5    3    5    5
 3.43946142539855e-06    5    3    6    1
 0.0001755156788809574    5    3    6    2
 0.0001054357583557144    5    3    6    3
 0.0004738913844414907    5    3    6    4
 -0.01357816424405395    5    3    6    5
 -0.0003578469534160437    5    3    6    6
 -0.0004213225243376527    5    3    7    1
 0.005391077988580427    5    3    7    2
 -0.0007235630718756123    5    3    7    3
 -0.0001776447769151004    5    3    7    4
 0.0001400208982424541    5    3    7    5
 0.0005540553808904632    5    3    7    6
 0.0006254257353044731    5    3    7    7
 -0.004406652734090953    5    3    8    1
 -0.0005132411116146394    5    3    8    2
 -0.0120947196736188    5    3    8    3
 -0.001349068528182215    5    3    8    4
 -0.0002455128666840343    5    3    8    5
 0.02370256072887994    5    3    8    6
 0.001905306245289724    5    3    8    7
 0.0007123212544082856    5    3    8    8
 0.001069597102091242    5    3    9    1
 -5.131581030520934e-05    5    3    9    2
 0.002251034183548179    5    3    9    3
 -0.005950920691513444    5    3    9    4
 -0.0009723946035897272    5    3    9    5