 &FCI NORB=   5,NELEC= 7,MS2=3,
  ORBSYM=1,1,1,1,1,
  ISYM=1,
 &END
 0.9370492256757627    1    1    1    1
 -4.780283347672676e-05    1    1    2    1
 0.8559970982254236    1    1    2    2
 -0.001336447695879753    1    1    3    1
 -0.0002698412019215303    1    1    3    2
 0.8701952173080335    1    1    3    3
 -0.0005707033844553367    1    1    4    1
 8.031221476335163e-05    1    1    4    2
 -0.005889141198860247    1    1    4    3
 0.8878035354047127    1    1    4    4
 0.0003201220775396552    1    1    5    1
 0.0002882122187741572    1    1    5    2
 -0.003161513681954091    1    1    5    3
 0.01124965569589648    1    1    5    4
 0.8758851439612793    1    1    5    5
 -4.780283347666185e-05    2    1    1    1
 0.04129477233709963    2    1    2    1
 -1.331612375453574e-05    2    1    2    2
 2.282842663376487e-05    2    1    3    1
 4.017871413844831e-05    2    1    3    2
 0.004458690053659441    2    1    3    3
 0.0001558125690950654    2    1    4    1
 6.423612008187051e-05    2    1    4    2
 -0.008557770680443409    2    1    4    3
 -0.005676254328581679    2    1    4    4
 8.853179526828429e-06    2    1    5    1
 -8.077709609831431e-05    2    1    5    2
 0.0152926743761926    2    1    5    3
 0.003910416676434987    2    1    5    4
 0.001204416634408883    2    1    5    5
 0.8559970982254228    2    2    1    1
 -1.331612375456364e-05    2    2    2    1
 0.9404161855383452    2    2    2    2
 -0.00140129214337573    2    2    3    1
 -0.0001519480095533276    2    2    3    2
 0.8891635193475348    2    2    3    3
 -0.0007175428759288182    2    2    4    1
 0.000107476456220501    2    2    4    2
 0.007401582681069055    2    2    4    3
 0.8695774436450968    2    2    4    4
 0.0004932871773582639    2    2    5    1
 0.0001078613685766857    2    2    5    2
 0.005056273835238659    2    2    5    3
 -0.01674825008508208    2    2    5    4
 0.8805286500951007    2    2    5    5
 -0.001336447695879633    3    1    1    1
 2.282842663374832e-05    3    1    2    1
 -0.001401292143375925    3    1    2    2
 0.03514230939648545    3    1    3    1
 -0.002242773280216618    3    1    3    2
 -0.001334283095338845    3    1    3    3
 0.003298768537334927    3    1    4    1
 0.004190299961271155    3    1    4    2
 -0.002279389674812716    3    1    4    3
 0.01283373627441001    3    1    4    4
 0.002044864243757693    3    1    5    1
 -0.007779774717189865    3    1    5    2
 0.00328867931449299    3    1    5    3
 -0.005804509881340496    3    1    5    4
 -0.0149814188439111    3    1    5    5
 -0.000269841201921521    3    2    1    1
 4.017871413844283e-05    3    2    2    1
 -0.0001519480095532189    3    2    2    2
 -0.002242773280216604    3    2    3    1
 0.02639799770852842    3    2    3    2
 -0.0001216877983317065    3    2    3    3
 0.004372569539446833    3    2    4    1
 -0.003365228108497767    3    2    4    2
 -0.007639837651506613    3    2    4    3
 -0.004282950471611706    3    2    4    4
 -0.007581311656281445    3    2    5    1
 -0.002035059680480243    3    2    5    2
 -0.004349279753702738    3    2    5    3
 -0.00327720269567684    3    2    5    4
 0.004182004431057496    3    2    5    5
 0.870195217308033    3    3    1    1
 0.004458690053659473    3    3    2    1
 0.8891635193475345    3    3    2    2
 -0.001334283095338672    3    3    3    1
 -0.0001216877983314768    3    3    3    2
 0.9443289668515213    3    3    3    3
 0.004118963580744588    3    3    4    1
 0.01531689132183737    3    3    4    2
 0.0008678556116384467    3    3    4    3
 0.8705672629275748    3    3    4    4
 -0.006276872560017017    3    3    5    1
 0.008692326770897686    3    3    5    2
 0.001124358892036943    3    3    5    3
 -0.003027691832741036    3    3    5    4
 0.8696797420728538    3    3    5    5
 -0.000570703384455617    4    1    1    1
 0.000155812569095083    4    1    2    1
 -0.0007175428759285769    4    1    2    2
 0.00329876853733499    4    1    3    1
 0.004372569539446815    4    1    3    2
 0.004118963580744742    4    1    3    3
 0.02577761312920548    4    1    4    1
 0.002872111881534572    4    1    4    2
 -0.007119363108466423    4    1    4    3
 -0.0006299102940526897    4    1    4    4
 -0.007104468118354695    4    1    5    1
 -0.001859466210087851    4    1    5    2
 -0.003648801501600076    4    1    5    3
 -0.00317313855934985    4    1    5    4
 -0.004919430474266391    4    1    5    5
 8.031221476337942e-05    4    2    1    1
 6.42361200818589e-05    4    2    2    1
 0.0001074764562204543    4    2    2    2
 0.004190299961271143    4    2    3    1
 -0.003365228108497775    4    2    3    2
 0.01531689132183735    4    2    3    3
 0.002872111881534568    4    2    4    1
 0.03568069257965208    4    2    4    2
 0.002119023626028827    4    2    4    3
 1.342284164041302e-05    4    2    4    4
 -0.002033530710070779    4    2    5    1
 0.006834226132928133    4    2    5    2
 -0.001523269575903938    4    2    5    3
 0.004315189076599559    4    2    5    4
 -0.01512566141192168    4    2    5    5
 -0.00588914119886006    4    3    1    1
 -0.00855777068044343    4    3    2    1
 0.007401582681068914    4    3    2    2
 -0.002279389674812743    4    3    3    1
 -0.007639837651506626    4    3    3    2
 0.0008678556116383568    4    3    3    3
 -0.007119363108466413    4    3    4    1
 0.002119023626028831    4    3    4    2
 0.0362238162564481    4    3    4    3
 0.0006493435912609867    4    3    4    4
 0.009486630856537417    4    3    5    1
 0.004858662268237953    4    3    5    2
 -0.0001610626226899906    4    3    5    3
 3.349215744970674e-05    4    3    5    4
 0.0004003971127186313    4    3    5    5
 0.8878035354047124    4    4    1    1
 -0.005676254328581687    4    4    2    1
 0.8695774436450974    4    4    2    2
 0.0128337362744101    4    4    3    1
 -0.004282950471611506    4    4    3    2
 0.8705672629275757    4    4    3    3
 -0.0006299102940527042    4    4    4    1
 1.34228416404301e-05    4    4    4    2
 0.0006493435912612812    4    4    4    3
 0.9418630000446953    4    4    4    4
 0.006710679969230957    4    4    5    1
 -0.00878561669936433    4    4    5    2
 0.0007710179740076407    4    4    5    3
 -0.003172884084960141    4    4    5    4
 0.8687164477148691    4    4    5    5
 0.0003201220775396986    5    1    1    1
 8.853179526836632e-06    5    1    2    1
 0.0004932871773584122    5    1    2    2
 0.002044864243757686    5    1    3    1
 -0.00758131165628148    5    1    3    2
 -0.006276872560017035    5    1    3    3
 -0.007104468118354649    5    1    4    1
 -0.002033530710070778    5    1    4    2
 0.009486630856537401    5    1    4    3
 0.006710679969231035    5    1    4    4
 0.03128896312399971    5    1    5    1
 -0.0006033082270027133    5    1    5    2
 0.006908602959238528    5    1    5    3
 0.0021963641357609    5    1    5    4
 0.000323959901447264    5    1    5    5
 0.0002882122187743605    5    2    1    1
 -8.077709609832696e-05    5    2    2    1
 0.0001078613685767382    5    2    2    2
 -0.007779774717189826    5    2    3    1
 -0.002035059680480267    5    2    3    2
 0.008692326770897731    5    2    3    3
 -0.00185946621008788    5    2    4    1
 0.006834226132928138    5    2    4    2
 0.004858662268237961    5    2    4    3
 -0.008785616699364389    5    2    4    4
 -0.0006033082270027273    5    2    5    1
 0.02984861636283266    5    2    5    2
 -0.002134459620101839    5    2    5    3
 0.007534889681500984    5    2    5    4
 9.701335456420025e-05    5    2    5    5
 -0.003161513681953936    5    3    1    1
 0.0152926743761926    5    3    2    1
 0.005056273835238633    5    3    2    2
 0.003288679314492956    5    3    3    1
 -0.004349279753702728    5    3    3    2
 0.001124358892036984    5    3    3    3
 -0.003648801501600077    5    3    4    1
 -0.001523269575903925    5    3    4    2
 -0.0001610626226899851    5    3    4    3
 0.0007710179740077766    5    3    4    4
 0.006908602959238514    5    3    5    1
 -0.002134459620101848    5    3    5    2
 0.03636848966030013    5    3    5    3
 0.0001426068597836448    5    3    5    4
 0.001036405985879507    5    3    5    5
 0.01124965569589633    5    4    1    1
 0.003910416676434997    5    4    2    1
 -0.01674825008508192    5    4    2    2
 -0.005804509881340477    5    4    3    1
 -0.00327720269567682    5    4    3    2
 -0.003027691832740957    5    4    3    3
 -0.003173138559349872    5    4    4    1
 0.004315189076599566    5    4    4    2
 3.349215744971943e-05    5    4    4    3
 -0.003172884084960066    5    4    4    4
 0.002196364135760893    5    4    5    1
 0.007534889681500984    5    4    5    2
 0.000142606859783623    5    4    5    3
 0.03633276394495125    5    4    5    4
 -0.003204587070192762    5    4    5    5
 0.8758851439612791    5    5    1    1
 0.001204416634408903    5    5    2    1
 0.8805286500950995    5    5    2    2
 -0.01498141884391101    5    5    3    1
 0.004182004431057307    5    5    3    2
 0.8696797420728535    5    5    3    3
 -0.004919430474266403    5    5    4    1
 -0.01512566141192165    5    5    4    2
 0.0004003971127185636    5    5    4    3
 0.8687164477148697    5    5    4    4
 0.0003239599014471894    5    5    5    1
 9.701335456424278e-05    5    5    5    2
 0.001036405985879464    5    5    5    3
 -0.003204587070192529    5    5    5    4
 0.9407310073792622    5    5    5    5
 -5.86743152665528    1    1  0  0
 -2.116696632297705e-06    2    1  0  0
 -5.883166100530616    2    2  0  0
 0.007656144965399507    3    1  0  0
 0.001050102885863758    3    2  0  0
 -5.858887885300795    3    3  0  0
 0.003606426139768781    4    1  0  0
 -0.0002803277747506567    4    2  0  0
 0.002831907295818495    4    3  0  0
 -5.870107092308419    4    4  0  0
 -0.002311545930745175    5    1  0  0
 -0.0006864179094193953    5    2  0  0
 -0.00162684114243836    5    3  0  0
 0.006875031706502848    5    4  0  0
 -5.857374713618317    5    5  0  0
 -2915.310750203313  0  0  0  0
