[Molden Format]
made by pyscf v[2.9.0]
[Atoms] (AU)
Co   1   27    20.87021090874153     1.98232270466875     6.31882842079816
S   2   16    16.58845055844077     5.68686621022111     8.19802877084940
S   3   16    21.61132370027345     5.70982638263458     1.75234303530918
S   4   16    20.61895292321935    -3.83383856699511     4.86096140747995
S   5   16    24.72961747020200     0.36885564225385    10.59703608598474
O   6   8    22.35861589623271    -0.86488985269094    11.27378480571398
O   7   8    23.03612050641177     5.80680712734726    -0.58031599559268
O   8   8    14.99049814750855     5.83430264245968    10.42112148104898
O   9   8    19.04579371904143     4.79722094529837     1.55292023738383
N   10   7    19.14271777197037    -1.34128980869379     5.66109034588205
O   11   8    25.97483360272290     1.61890947365364    12.69778792687999
O   12   8    19.41555642983508    -5.22528170703485     2.82829639885279
O   13   8    18.90111628694473     7.13751446974348     8.28096885045656
O   14   8    23.20491084385792    -3.02273031980929     4.34873224415535
N   15   7    24.11987843884983     2.16840403615467     8.27820985031469
N   16   7    17.39226446278576     2.85839973601711     7.50019070757001
N   17   7    22.92657308297073     4.06132379787025     3.91150631071473
C   18   6    11.53252610668943    -1.13434590079267     7.91011009851066
H   19   1     9.84545421172273    -1.02710394322360     8.39191467122977
C   20   6    25.43926632175992     4.54677554200977     4.68053035710648
C   21   6    16.57078161917608    -1.43222342980786     6.38933410250568
C   22   6    14.76405226600192     6.84207468742898     5.64483870121079
H   23   1    13.20765493254888     5.91495615345612     5.54392732615901
H   24   1    15.69026373143499     6.63996847840675     4.09917501214529
H   25   1    14.40417282283974     8.60054043538176     5.90683033112049
C   26   6    27.26481734713475     5.89925252936098     3.31771656785390
H   27   1    26.86313716209720     6.54933721347261     1.73507093853066
C   28   6    26.09723116381098     3.50185148143152     7.05846722595293
C   29   6    20.79418722675027    -5.83702384807905     7.52783740077240
H   30   1    21.59019656220081    -4.95129031623416     8.89654713553363
H   31   1    21.76701823567637    -7.31061338275364     7.11308031095286
H   32   1    19.12136386676279    -6.33485329833447     8.01863706984444
C   33   6    21.44963873305566     8.83919394765308     2.92542832165544
H   34   1    20.51309046572122     8.85431175664960     4.47936901114653
H   35   1    20.61872615608441     9.89953817340778     1.70742424532827
H   36   1    23.12660059325595     9.46149965773360     3.22474204252530
C   37   6    28.51874511708989     3.89757902917669     8.00792232271815
H   38   1    28.95763400952013     3.22332474793187     9.57051795785975
C   39   6    29.67140246402960     6.27897409683109     4.30897240649450
H   40   1    30.85920871688621     7.19883608248562     3.39755749661677
C   41   6    13.06870337060962     0.99720847593298     8.07634930568865
H   42   1    12.39924899372120     2.50736421111791     8.67533579539204
C   43   6    26.79378421332566    -1.99290517096631     9.45023689003119
H   44   1    26.01570837879724    -2.84872433825934     8.05320016066273
H   45   1    27.14332685458646    -3.18403734180216    10.77330973888417
H   46   1    28.34443677936001    -1.22648894662646     8.90000533434158
C   47   6    15.60964801496104     0.88573353184489     7.34742524766017
C   48   6    14.99461775046010    -3.53416579816158     6.24866288979306
H   49   1    15.62366978280532    -5.05097336930497     5.61995100815027
C   50   6    12.48079067599618    -3.39733072948182     7.04015577980589
H   51   1    11.45536858902344    -4.82439520696962     6.98174434529559
C   52   6    30.29837579763780     5.29234808719567     6.64648803353650
H   53   1    31.90415167472571     5.55847821731816     7.31010315670001
[GTO]
1 0
 s    8 1.00
          325817.01553  0.0002398353536197
          48839.636453  0.0018596633237351
          11114.937307  0.0096709152704258
          3146.1603642   0.039315971778749
          1024.4378465    0.12799461486096
          368.02508816    0.30391910494459
          142.91229205    0.43473318053545
          56.482649209    0.22848233723692
 s    4 1.00
          356.40298318  -0.024844682079028
          110.31165215   -0.11738814789025
          17.659634834    0.55388573077371
          7.5059030479    0.53413758009873
 s    2 1.00
          11.501807176   -0.37791187256515
          1.9081994606     1.1725032128157
 s    1 1.00
         0.79396696891                   1
 s    1 1.00
         0.12444448829                   1
 s    1 1.00
        0.044444645379                   1
 p    6 1.00
          1731.1369144  0.0027113690065776
          409.91750438   0.021984010744819
          131.45648578    0.10310407884161
          48.987439714    0.29655312888033
          19.537078992     0.4781436097905
          7.9287281634    0.27869112839934
 p    3 1.00
          31.076017584  -0.020509295921844
          4.2835180697    0.38746974460797
          1.7022921563    0.67420506418877
 p    1 1.00
         0.64202908602                   1
 p    1 1.00
              0.141308                   1
 d    4 1.00
          68.140745239   0.019697336268202
          19.685241019    0.12111871584173
          6.9322128825    0.37944647925134
          2.6025125694    0.64564604205304
 d    1 1.00
         0.94016837302                   1
 d    1 1.00
         0.30381457794                   1
 d    1 1.00
                 0.098                   1
 f    1 1.00
                 1.903                   1

2 0
 s    6 1.00
               21917.1  0.0018690012083963
               3301.49   0.014230009200363
               754.146   0.069696045061737
               212.711    0.23848715419305
               67.9896    0.48330731248067
               23.0515    0.33807421858072
 s    6 1.00
               423.735  -0.0023767004951016
                100.71  -0.031693006602118
               32.1599    -0.1133170236056
               11.8079   0.056090011684372
                4.6311    0.59225512337543
               1.87025    0.45500609478445
 s    3 1.00
               2.61584   -0.25037311415873
              0.922167   0.066956763101304
              0.341287     1.0545062690676
 s    1 1.00
              0.117167                   1
 p    6 1.00
               423.735  0.0040610003212886
                100.71   0.030681002427347
               32.1599    0.13045201032079
               11.8079    0.32720502588703
                4.6311    0.45285103582759
               1.87025    0.25604202025693
 p    3 1.00
               2.61584   -0.01451099285405
              0.922167    0.31026284721082
              0.341287    0.75448262845444
 p    1 1.00
              0.117167                   1
 d    1 1.00
                  0.65                   1

3 0
 s    6 1.00
               21917.1  0.0018690012083963
               3301.49   0.014230009200363
               754.146   0.069696045061737
               212.711    0.23848715419305
               67.9896    0.48330731248067
               23.0515    0.33807421858072
 s    6 1.00
               423.735  -0.0023767004951016
                100.71  -0.031693006602118
               32.1599    -0.1133170236056
               11.8079   0.056090011684372
                4.6311    0.59225512337543
               1.87025    0.45500609478445
 s    3 1.00
               2.61584   -0.25037311415873
              0.922167   0.066956763101304
              0.341287     1.0545062690676
 s    1 1.00
              0.117167                   1
 p    6 1.00
               423.735  0.0040610003212886
                100.71   0.030681002427347
               32.1599    0.13045201032079
               11.8079    0.32720502588703
                4.6311    0.45285103582759
               1.87025    0.25604202025693
 p    3 1.00
               2.61584   -0.01451099285405
              0.922167    0.31026284721082
              0.341287    0.75448262845444
 p    1 1.00
              0.117167                   1
 d    1 1.00
                  0.65                   1

4 0
 s    6 1.00
               21917.1  0.0018690012083963
               3301.49   0.014230009200363
               754.146   0.069696045061737
               212.711    0.23848715419305
               67.9896    0.48330731248067
               23.0515    0.33807421858072
 s    6 1.00
               423.735  -0.0023767004951016
                100.71  -0.031693006602118
               32.1599    -0.1133170236056
               11.8079   0.056090011684372
                4.6311    0.59225512337543
               1.87025    0.45500609478445
 s    3 1.00
               2.61584   -0.25037311415873
              0.922167   0.066956763101304
              0.341287     1.0545062690676
 s    1 1.00
              0.117167                   1
 p    6 1.00
               423.735  0.0040610003212886
                100.71   0.030681002427347
               32.1599    0.13045201032079
               11.8079    0.32720502588703
                4.6311    0.45285103582759
               1.87025    0.25604202025693
 p    3 1.00
               2.61584   -0.01451099285405
              0.922167    0.31026284721082
              0.341287    0.75448262845444
 p    1 1.00
              0.117167                   1
 d    1 1.00
                  0.65                   1

5 0
 s    6 1.00
               21917.1  0.0018690012083963
               3301.49   0.014230009200363
               754.146   0.069696045061737
               212.711    0.23848715419305
               67.9896    0.48330731248067
               23.0515    0.33807421858072
 s    6 1.00
               423.735  -0.0023767004951016
                100.71  -0.031693006602118
               32.1599    -0.1133170236056
               11.8079   0.056090011684372
                4.6311    0.59225512337543
               1.87025    0.45500609478445
 s    3 1.00
               2.61584   -0.25037311415873
              0.922167   0.066956763101304
              0.341287     1.0545062690676
 s    1 1.00
              0.117167                   1
 p    6 1.00
               423.735  0.0040610003212886
                100.71   0.030681002427347
               32.1599    0.13045201032079
               11.8079    0.32720502588703
                4.6311    0.45285103582759
               1.87025    0.25604202025693
 p    3 1.00
               2.61584   -0.01451099285405
              0.922167    0.31026284721082
              0.341287    0.75448262845444
 p    1 1.00
              0.117167                   1
 d    1 1.00
                  0.65                   1

6 0
 s    6 1.00
             5484.6717   0.001831099805527
             825.23495   0.013950098518422
             188.04696    0.06844509273075
               52.9645    0.23271427528445
              16.89757    0.47019295006289
             5.7996353    0.35852086192309
 s    3 1.00
             15.539616   -0.11077750382508
             3.5999336   -0.14802630511126
             1.0137618     1.1307670390447
 s    1 1.00
             0.2700058                   1
 p    3 1.00
             15.539616   0.070874299543311
             3.5999336    0.33975279781076
             1.0137618    0.72715859531445
 p    1 1.00
             0.2700058                   1
 d    1 1.00
                   0.8                   1

7 0
 s    6 1.00
             5484.6717   0.001831099805527
             825.23495   0.013950098518422
             188.04696    0.06844509273075
               52.9645    0.23271427528445
              16.89757    0.47019295006289
             5.7996353    0.35852086192309
 s    3 1.00
             15.539616   -0.11077750382508
             3.5999336   -0.14802630511126
             1.0137618     1.1307670390447
 s    1 1.00
             0.2700058                   1
 p    3 1.00
             15.539616   0.070874299543311
             3.5999336    0.33975279781076
             1.0137618    0.72715859531445
 p    1 1.00
             0.2700058                   1
 d    1 1.00
                   0.8                   1

8 0
 s    6 1.00
             5484.6717   0.001831099805527
             825.23495   0.013950098518422
             188.04696    0.06844509273075
               52.9645    0.23271427528445
              16.89757    0.47019295006289
             5.7996353    0.35852086192309
 s    3 1.00
             15.539616   -0.11077750382508
             3.5999336   -0.14802630511126
             1.0137618     1.1307670390447
 s    1 1.00
             0.2700058                   1
 p    3 1.00
             15.539616   0.070874299543311
             3.5999336    0.33975279781076
             1.0137618    0.72715859531445
 p    1 1.00
             0.2700058                   1
 d    1 1.00
                   0.8                   1

9 0
 s    6 1.00
             5484.6717   0.001831099805527
             825.23495   0.013950098518422
             188.04696    0.06844509273075
               52.9645    0.23271427528445
              16.89757    0.47019295006289
             5.7996353    0.35852086192309
 s    3 1.00
             15.539616   -0.11077750382508
             3.5999336   -0.14802630511126
             1.0137618     1.1307670390447
 s    1 1.00
             0.2700058                   1
 p    3 1.00
             15.539616   0.070874299543311
             3.5999336    0.33975279781076
             1.0137618    0.72715859531445
 p    1 1.00
             0.2700058                   1
 d    1 1.00
                   0.8                   1

10 0
 s    6 1.00
          19730.800647  0.00058626402628763
          2957.8958745  0.0045428820586397
          673.22133595   0.023558413450084
          190.68249494   0.094709193292923
          62.295441898    0.29719784913376
          22.654161182    0.66916246895232
 s    2 1.00
          8.9791477428    0.64596683630063
           3.686300237    0.38700574393705
 s    1 1.00
         0.84660076805                   1
 s    1 1.00
         0.33647133771                   1
 s    1 1.00
         0.13647653675                   1
 p    4 1.00
           49.20038051   0.011448825101764
          11.346790537   0.078422337970864
          3.4273972411     0.3081809473883
          1.1785525134    0.72027196368413
 p    1 1.00
         0.41642204972                   1
 p    1 1.00
         0.14260826011                   1
 d    1 1.00
                 1.654                   1
 d    1 1.00
                 0.469                   1
 f    1 1.00
                 1.093                   1

11 0
 s    6 1.00
             5484.6717   0.001831099805527
             825.23495   0.013950098518422
             188.04696    0.06844509273075
               52.9645    0.23271427528445
              16.89757    0.47019295006289
             5.7996353    0.35852086192309
 s    3 1.00
             15.539616   -0.11077750382508
             3.5999336   -0.14802630511126
             1.0137618     1.1307670390447
 s    1 1.00
             0.2700058                   1
 p    3 1.00
             15.539616   0.070874299543311
             3.5999336    0.33975279781076
             1.0137618    0.72715859531445
 p    1 1.00
             0.2700058                   1
 d    1 1.00
                   0.8                   1

12 0
 s    6 1.00
             5484.6717   0.001831099805527
             825.23495   0.013950098518422
             188.04696    0.06844509273075
               52.9645    0.23271427528445
              16.89757    0.47019295006289
             5.7996353    0.35852086192309
 s    3 1.00
             15.539616   -0.11077750382508
             3.5999336   -0.14802630511126
             1.0137618     1.1307670390447
 s    1 1.00
             0.2700058                   1
 p    3 1.00
             15.539616   0.070874299543311
             3.5999336    0.33975279781076
             1.0137618    0.72715859531445
 p    1 1.00
             0.2700058                   1
 d    1 1.00
                   0.8                   1

13 0
 s    6 1.00
             5484.6717   0.001831099805527
             825.23495   0.013950098518422
             188.04696    0.06844509273075
               52.9645    0.23271427528445
              16.89757    0.47019295006289
             5.7996353    0.35852086192309
 s    3 1.00
             15.539616   -0.11077750382508
             3.5999336   -0.14802630511126
             1.0137618     1.1307670390447
 s    1 1.00
             0.2700058                   1
 p    3 1.00
             15.539616   0.070874299543311
             3.5999336    0.33975279781076
             1.0137618    0.72715859531445
 p    1 1.00
             0.2700058                   1
 d    1 1.00
                   0.8                   1

14 0
 s    6 1.00
             5484.6717   0.001831099805527
             825.23495   0.013950098518422
             188.04696    0.06844509273075
               52.9645    0.23271427528445
              16.89757    0.47019295006289
             5.7996353    0.35852086192309
 s    3 1.00
             15.539616   -0.11077750382508
             3.5999336   -0.14802630511126
             1.0137618     1.1307670390447
 s    1 1.00
             0.2700058                   1
 p    3 1.00
             15.539616   0.070874299543311
             3.5999336    0.33975279781076
             1.0137618    0.72715859531445
 p    1 1.00
             0.2700058                   1
 d    1 1.00
                   0.8                   1

15 0
 s    6 1.00
          19730.800647  0.00058626402628763
          2957.8958745  0.0045428820586397
          673.22133595   0.023558413450084
          190.68249494   0.094709193292923
          62.295441898    0.29719784913376
          22.654161182    0.66916246895232
 s    2 1.00
          8.9791477428    0.64596683630063
           3.686300237    0.38700574393705
 s    1 1.00
         0.84660076805                   1
 s    1 1.00
         0.33647133771                   1
 s    1 1.00
         0.13647653675                   1
 p    4 1.00
           49.20038051   0.011448825101764
          11.346790537   0.078422337970864
          3.4273972411     0.3081809473883
          1.1785525134    0.72027196368413
 p    1 1.00
         0.41642204972                   1
 p    1 1.00
         0.14260826011                   1
 d    1 1.00
                 1.654                   1
 d    1 1.00
                 0.469                   1
 f    1 1.00
                 1.093                   1

16 0
 s    6 1.00
          19730.800647  0.00058626402628763
          2957.8958745  0.0045428820586397
          673.22133595   0.023558413450084
          190.68249494   0.094709193292923
          62.295441898    0.29719784913376
          22.654161182    0.66916246895232
 s    2 1.00
          8.9791477428    0.64596683630063
           3.686300237    0.38700574393705
 s    1 1.00
         0.84660076805                   1
 s    1 1.00
         0.33647133771                   1
 s    1 1.00
         0.13647653675                   1
 p    4 1.00
           49.20038051   0.011448825101764
          11.346790537   0.078422337970864
          3.4273972411     0.3081809473883
          1.1785525134    0.72027196368413
 p    1 1.00
         0.41642204972                   1
 p    1 1.00
         0.14260826011                   1
 d    1 1.00
                 1.654                   1
 d    1 1.00
                 0.469                   1
 f    1 1.00
                 1.093                   1

17 0
 s    6 1.00
          19730.800647  0.00058626402628763
          2957.8958745  0.0045428820586397
          673.22133595   0.023558413450084
          190.68249494   0.094709193292923
          62.295441898    0.29719784913376
          22.654161182    0.66916246895232
 s    2 1.00
          8.9791477428    0.64596683630063
           3.686300237    0.38700574393705
 s    1 1.00
         0.84660076805                   1
 s    1 1.00
         0.33647133771                   1
 s    1 1.00
         0.13647653675                   1
 p    4 1.00
           49.20038051   0.011448825101764
          11.346790537   0.078422337970864
          3.4273972411     0.3081809473883
          1.1785525134    0.72027196368413
 p    1 1.00
         0.41642204972                   1
 p    1 1.00
         0.14260826011                   1
 d    1 1.00
                 1.654                   1
 d    1 1.00
                 0.469                   1
 f    1 1.00
                 1.093                   1

18 0
 s    6 1.00
             3047.5249  0.0018347001629433
             457.36951    0.01403730124668
             103.94869   0.068842606114048
             29.210155    0.23218442062076
              9.286663    0.46794134155879
              3.163927    0.36231203217765
 s    3 1.00
             7.8682724   -0.11933240861517
             1.8812885   -0.16085421161283
             0.5442493     1.1434564825515
 s    1 1.00
             0.1687144                   1
 p    3 1.00
             7.8682724   0.068999095584993
             1.8812885    0.31642397975315
             0.5442493    0.74430825237435
 p    1 1.00
             0.1687144                   1
 d    1 1.00
                   0.8                   1

19 0
 s    3 1.00
             18.731137    0.03349459952309
             2.8253937    0.23472694665786
             0.6401217    0.81375731841339
 s    1 1.00
             0.1612778                   1

20 0
 s    6 1.00
             3047.5249  0.0018347001629433
             457.36951    0.01403730124668
             103.94869   0.068842606114048
             29.210155    0.23218442062076
              9.286663    0.46794134155879
              3.163927    0.36231203217765
 s    3 1.00
             7.8682724   -0.11933240861517
             1.8812885   -0.16085421161283
             0.5442493     1.1434564825515
 s    1 1.00
             0.1687144                   1
 p    3 1.00
             7.8682724   0.068999095584993
             1.8812885    0.31642397975315
             0.5442493    0.74430825237435
 p    1 1.00
             0.1687144                   1
 d    1 1.00
                   0.8                   1

21 0
 s    6 1.00
             3047.5249  0.0018347001629433
             457.36951    0.01403730124668
             103.94869   0.068842606114048
             29.210155    0.23218442062076
              9.286663    0.46794134155879
              3.163927    0.36231203217765
 s    3 1.00
             7.8682724   -0.11933240861517
             1.8812885   -0.16085421161283
             0.5442493     1.1434564825515
 s    1 1.00
             0.1687144                   1
 p    3 1.00
             7.8682724   0.068999095584993
             1.8812885    0.31642397975315
             0.5442493    0.74430825237435
 p    1 1.00
             0.1687144                   1
 d    1 1.00
                   0.8                   1

22 0
 s    6 1.00
             3047.5249  0.0018347001629433
             457.36951    0.01403730124668
             103.94869   0.068842606114048
             29.210155    0.23218442062076
              9.286663    0.46794134155879
              3.163927    0.36231203217765
 s    3 1.00
             7.8682724   -0.11933240861517
             1.8812885   -0.16085421161283
             0.5442493     1.1434564825515
 s    1 1.00
             0.1687144                   1
 p    3 1.00
             7.8682724   0.068999095584993
             1.8812885    0.31642397975315
             0.5442493    0.74430825237435
 p    1 1.00
             0.1687144                   1
 d    1 1.00
                   0.8                   1

23 0
 s    3 1.00
             18.731137    0.03349459952309
             2.8253937    0.23472694665786
             0.6401217    0.81375731841339
 s    1 1.00
             0.1612778                   1

24 0
 s    3 1.00
             18.731137    0.03349459952309
             2.8253937    0.23472694665786
             0.6401217    0.81375731841339
 s    1 1.00
             0.1612778                   1

25 0
 s    3 1.00
             18.731137    0.03349459952309
             2.8253937    0.23472694665786
             0.6401217    0.81375731841339
 s    1 1.00
             0.1612778                   1

26 0
 s    6 1.00
             3047.5249  0.0018347001629433
             457.36951    0.01403730124668
             103.94869   0.068842606114048
             29.210155    0.23218442062076
              9.286663    0.46794134155879
              3.163927    0.36231203217765
 s    3 1.00
             7.8682724   -0.11933240861517
             1.8812885   -0.16085421161283
             0.5442493     1.1434564825515
 s    1 1.00
             0.1687144                   1
 p    3 1.00
             7.8682724   0.068999095584993
             1.8812885    0.31642397975315
             0.5442493    0.74430825237435
 p    1 1.00
             0.1687144                   1
 d    1 1.00
                   0.8                   1

27 0
 s    3 1.00
             18.731137    0.03349459952309
             2.8253937    0.23472694665786
             0.6401217    0.81375731841339
 s    1 1.00
             0.1612778                   1

28 0
 s    6 1.00
             3047.5249  0.0018347001629433
             457.36951    0.01403730124668
             103.94869   0.068842606114048
             29.210155    0.23218442062076
              9.286663    0.46794134155879
              3.163927    0.36231203217765
 s    3 1.00
             7.8682724   -0.11933240861517
             1.8812885   -0.16085421161283
             0.5442493     1.1434564825515
 s    1 1.00
             0.1687144                   1
 p    3 1.00
             7.8682724   0.068999095584993
             1.8812885    0.31642397975315
             0.5442493    0.74430825237435
 p    1 1.00
             0.1687144                   1
 d    1 1.00
                   0.8                   1

29 0
 s    6 1.00
             3047.5249  0.0018347001629433
             457.36951    0.01403730124668
             103.94869   0.068842606114048
             29.210155    0.23218442062076
              9.286663    0.46794134155879
              3.163927    0.36231203217765
 s    3 1.00
             7.8682724   -0.11933240861517
             1.8812885   -0.16085421161283
             0.5442493     1.1434564825515
 s    1 1.00
             0.1687144                   1
 p    3 1.00
             7.8682724   0.068999095584993
             1.8812885    0.31642397975315
             0.5442493    0.74430825237435
 p    1 1.00
             0.1687144                   1
 d    1 1.00
                   0.8                   1

30 0
 s    3 1.00
             18.731137    0.03349459952309
             2.8253937    0.23472694665786
             0.6401217    0.81375731841339
 s    1 1.00
             0.1612778                   1

31 0
 s    3 1.00
             18.731137    0.03349459952309
             2.8253937    0.23472694665786
             0.6401217    0.81375731841339
 s    1 1.00
             0.1612778                   1

32 0
 s    3 1.00
             18.731137    0.03349459952309
             2.8253937    0.23472694665786
             0.6401217    0.81375731841339
 s    1 1.00
             0.1612778                   1

33 0
 s    6 1.00
             3047.5249  0.0018347001629433
             457.36951    0.01403730124668
             103.94869   0.068842606114048
             29.210155    0.23218442062076
              9.286663    0.46794134155879
              3.163927    0.36231203217765
 s    3 1.00
             7.8682724   -0.11933240861517
             1.8812885   -0.16085421161283
             0.5442493     1.1434564825515
 s    1 1.00
             0.1687144                   1
 p    3 1.00
             7.8682724   0.068999095584993
             1.8812885    0.31642397975315
             0.5442493    0.74430825237435
 p    1 1.00
             0.1687144                   1
 d    1 1.00
                   0.8                   1

34 0
 s    3 1.00
             18.731137    0.03349459952309
             2.8253937    0.23472694665786
             0.6401217    0.81375731841339
 s    1 1.00
             0.1612778                   1

35 0
 s    3 1.00
             18.731137    0.03349459952309
             2.8253937    0.23472694665786
             0.6401217    0.81375731841339
 s    1 1.00
             0.1612778                   1

36 0
 s    3 1.00
             18.731137    0.03349459952309
             2.8253937    0.23472694665786
             0.6401217    0.81375731841339
 s    1 1.00
             0.1612778                   1

37 0
 s    6 1.00
             3047.5249  0.0018347001629433
             457.36951    0.01403730124668
             103.94869   0.068842606114048
             29.210155    0.23218442062076
              9.286663    0.46794134155879
              3.163927    0.36231203217765
 s    3 1.00
             7.8682724   -0.11933240861517
             1.8812885   -0.16085421161283
             0.5442493     1.1434564825515
 s    1 1.00
             0.1687144                   1
 p    3 1.00
             7.8682724   0.068999095584993
             1.8812885    0.31642397975315
             0.5442493    0.74430825237435
 p    1 1.00
             0.1687144                   1
 d    1 1.00
                   0.8                   1

38 0
 s    3 1.00
             18.731137    0.03349459952309
             2.8253937    0.23472694665786
             0.6401217    0.81375731841339
 s    1 1.00
             0.1612778                   1

39 0
 s    6 1.00
             3047.5249  0.0018347001629433
             457.36951    0.01403730124668
             103.94869   0.068842606114048
             29.210155    0.23218442062076
              9.286663    0.46794134155879
              3.163927    0.36231203217765
 s    3 1.00