 &FCI NORB=  19,NELEC=24,MS2=6,
  ORBSYM=1,1,1,1,1,1,1,1,1,1,1,1,1,1,1,1,1,1,1,
  ISYM=1,
 &END
 0.3232074440639219    1    1    1    1
 -0.0006696652674929371    1    1    2    1
 0.2824543152670929    1    1    2    2
 -0.0007165651512280908    1    1    3    1
 -7.74010561211405e-05    1    1    3    2
 0.278989777586859    1    1    3    3
 1.422116958707605e-05    1    1    4    1
 2.465145052897454e-05    1    1    4    2
 -0.0001791058359497767    1    1    4    3
 0.2413663400684221    1    1    4    4
 -8.457836302023225e-06    1    1    5    1
 -0.0001944010358989905    1    1    5    2
 -4.609366392430089e-05    1    1    5    3
 0.0004264695958309799    1    1    5    4
 0.2399546371352053    1    1    5    5
 -4.385650133400549e-05    1    1    6    1
 4.272647991124246e-05    1    1    6    2
 -8.610696776733763e-05    1    1    6    3
 0.0004505621590714877    1    1    6    4
 0.003361845733744858    1    1    6    5
 0.2585893308204    1    1    6    6
 0.0003145073866106564    1    1    7    1
 -9.625638711154716e-06    1    1    7    2
 -0.0004815066786872074    1    1    7    3
 2.055723968844673e-05    1    1    7    4
 0.0001085730889134921    1    1    7    5
 -5.397716832341967e-05    1    1    7    6
 0.1950731691705697    1    1    7    7
 -0.0007655540242642716    1    1    8    1
 -0.01152958550458484    1    1    8    2
 0.006867661487600429    1    1    8    3
 -7.080732151584242e-05    1    1    8    4
 0.0001354235374575027    1    1    8    5
 8.658638562601117e-05    1    1    8    6
 0.002431163429920736    1    1    8    7
 0.2285704919984377    1    1    8    8
 -3.928988005802653e-06    1    1    9    1
 0.006980471299203493    1    1    9    2
 0.01057237472705427    1    1    9    3
 -0.0001563760286851874    1    1    9    4
 -2.062038458318399e-05    1    1    9    5
 -0.0001258724419545893    1    1    9    6
 -0.002740684620181051    1    1    9    7
 0.0005149087653914773    1    1    9    8
 0.2301256813768036    1    1    9    9
 -0.002693740508220459    1    1   10    1
 0.0002737355351342872    1    1   10    2
 0.0006156754057533596    1    1   10    3
 -0.001530336115746083    1    1   10    4
 -0.0002376733470583298    1    1   10    5
 -0.0007356943972519964    1    1   10    6
 0.0009882180064548554    1    1   10    7
 -0.001253445330366492    1    1   10    8
 -6.792112500730651e-05    1    1   10    9
 0.2629134082930845    1    1   10   10
 -1.826238218902418e-05    1    1   11    1
 -0.001224160359012973    1    1   11    2
 0.0002817436286000385    1    1   11    3
 -0.0002579644657440394    1    1   11    4
 0.003134430261374628    1    1   11    5
 -0.0002183098402257911    1    1   11    6
 -0.0001585369597794245    1    1   11    7
 0.0002110653226942112    1    1   11    8
 0.002496845273631494    1    1   11    9
 -1.759113514513678e-05    1    1   11   10
 0.2591079984888073    1    1   11   11
 0.0004715166895610173    1    1   12    1
 1.552298110291399e-05    1    1   12    2
 -0.001742279037227331    1    1   12    3
 -0.002489829403698812    1    1   12    4
 -8.092382047052214e-06    1    1   12    5
 -0.001649103547311232    1    1   12    6
 9.150868888991868e-05    1    1   12    7
 0.002412204356141911    1    1   12    8
 -0.001849929072214092    1    1   12    9
 -0.0006325819951475489    1    1   12   10
 -6.005053526238561e-05    1    1   12   11
 0.2591088209852603    1    1   12   12
 0.0001172484756236913    1    1   13    1
 -0.001550245167143297    1    1   13    2
 0.0002573118614433417    1    1   13    3
 -0.001010739763418243    1    1   13    4
 -0.001416523705122117    1    1   13    5
 -0.0005205036609286034    1    1   13    6
 -0.0002226052133083213    1    1   13    7
 0.001917634618849583    1    1   13    8
 0.004033952972239637    1    1   13    9
 -0.0002873317291922629    1    1   13   10
 0.0002392807967101202    1    1   13   11
 0.0001073753420272867    1    1   13   12
 0.259201098211905    1    1   13   13
 -0.0006764713547388881    1    1   14    1
 -0.000282362616283415    1    1   14    2
 -0.00083823860649956    1    1   14    3
 0.0004792063469283086    1    1   14    4
 0.0009704761751675419    1    1   14    5
 0.008280292912724654    1    1   14    6
 0.0003626059657173512    1    1   14    7
 0.001859046397297799    1    1   14    8
 -0.0001830619756566966    1    1   14    9
 0.0006892744043671517    1    1   14   10
 4.924356084471094e-05    1    1   14   11
 -0.0006321950774804292    1    1   14   12
 -0.000237104901356164    1    1   14   13
 0.2622409265009737    1    1   14   14
 -0.0002288793079424016    1    1   15    1
 0.005288886467081755    1    1   15    2
 0.003457983241141404    1    1   15    3
 -0.0009744870383434918    1    1   15    4
 0.00540743873915297    1    1   15    5
 -0.0002791450512877265    1    1   15    6
 0.0001715548178274504    1    1   15    7
 0.004170514885366849    1    1   15    8
 0.002290396594964515    1    1   15    9
 -5.52886403039597e-06    1    1   15   10
 -0.001476964126583894    1    1   15   11
 0.0006043728618497191    1    1   15   12
 -0.0008236106955681323    1    1   15   13
 0.0001412676410028694    1    1   15   14
 0.2605182788653658    1    1   15   15
 -0.0011674315292218    1    1   16    1
 -0.0007083519210937886    1    1   16    2
 -0.0009957375042861259    1    1   16    3
 0.001855184986096358    1    1   16    4
 -0.0001546465861243259    1    1   16    5
 -0.004019938023643814    1    1   16    6
 0.0006558635947637687    1    1   16    7
 0.002827510173876116    1    1   16    8
 -0.0005337525015421659    1    1   16    9
 0.00191864694752803    1    1   16   10
 1.196024346978832e-05    1    1   16   11
 0.0002228642998136569    1    1   16   12
 0.0001460325044652993    1    1   16   13
 -0.0008524014288043093    1    1   16   14
 8.593112791736275e-05    1    1   16   15
 0.2605055951063926    1    1   16   16
 0.0003836595146252915    1    1   17    1
 0.005216105268473444    1    1   17    2
 -0.006802586091208517    1    1   17    3
 -0.002650040540822566    1    1   17    4
 -0.000403415527353272    1    1   17    5
 -0.0001721324406547108    1    1   17    6
 -0.0003254186444329077    1    1   17    7
 -0.003402705368243631    1    1   17    8
 0.005921664011338438    1    1   17    9
 -0.0007514623893482364    1    1   17   10
 0.0001872874561518327    1    1   17   11
 0.001016081985176777    1    1   17   12
 0.0008699614326493902    1    1   17   13
 0.000852123544489797    1    1   17   14
 0.0001029456619670449    1    1   17   15
 0.001380470180347929    1    1   17   16
 0.2612868934867501    1    1   17   17
 0.0002638419922892788    1    1   18    1
 -0.005077959956316052    1    1   18    2
 -0.003637370397233083    1    1   18    3
 -0.0006899491150725232    1    1   18    4
 0.00522848994579964    1    1   18    5
 -0.0001666361567410085    1    1   18    6
 -0.0001598811606226953    1    1   18    7
 -0.004371319873482929    1    1   18    8
 -0.002666509605606542    1    1   18    9
 5.714156301444315e-05    1    1   18   10
 0.0003222520210835694    1    1   18   11
 -0.0006877049499004974    1    1   18   12
 0.001560311760050552    1    1   18   13
 -9.336585557759957e-05    1    1   18   14
 -0.001012166449761817    1    1   18   15
 -0.0003031396121992798    1    1   18   16
 -9.004055107268683e-05    1    1   18   17
 0.2601564941844539    1    1   18   18
 -8.984898817835261e-05    1    1   19    1
 -0.002043464012628503    1    1   19    2
 0.002449758744583451    1    1   19    3
 -0.007471731228985127    1    1   19    4
 -0.0008378786384604865    1    1   19    5
 -9.003295263970378e-05    1    1   19    6
 9.44100603209344e-05    1    1   19    7
 0.001094345798863914    1    1   19    8
 -0.00232007902327888    1    1   19    9
 -0.0001453736408836977    1    1   19   10
 -0.0002176455803345156    1    1   19   11
 -0.001045143942785209    1    1   19   12
 -0.0004419204016816124    1    1   19   13
 -0.0002533848911375667    1    1   19   14
 -1.734765906064614e-05    1    1   19   15
 -1.606637006600864e-05    1    1   19   16
 -0.0005331837889211858    1    1   19   17
 0.000121997725097852    1    1   19   18
 0.2598126879532936    1    1   19   19
 -0.0006696652674929849    2    1    1    1
 0.08264139607981398    2    1    2    1
 -0.002526928993975362    2    1    2    2
 -0.0003723150381807482    2    1    3    1
 -0.05345764478876108    2    1    3    2
 -0.001486242812208189    2    1    3    3
 -0.0001751513745750176    2    1    4    1
 0.0002247386020849648    2    1    4    2
 -2.777244698175909e-05    2    1    4    3
 0.005900385102625911    2    1    4    4
 -0.000143763958933241    2    1    5    1
 -2.488799013064161e-05    2    1    5    2
 0.0002453407905867728    2    1    5    3
 0.04223269023895809    2    1    5    4
 -0.008827400090759309    2    1    5    5
 1.316581109889348e-05    2    1    6    1
 -3.468085577420209e-06    2    1    6    2
 5.495513583158111e-05    2    1    6    3
 0.05436263059839114    2    1    6    4
 -0.01042440491560268    2    1    6    5
 0.0005885872444270169    2    1    6    6
 -0.0006761054319329586    2    1    7    1
 0.02115171671212925    2    1    7    2
 0.009235654129690631    2    1    7    3
 0.0002421874968820277    2    1    7    4
 -0.0001775331906814367    2    1    7    5
 -4.818406614455829e-05    2    1    7    6
 -0.0004313364401179851    2    1    7    7
 -0.001954781369850225    2    1    8    1
 -0.009190431842553373    2    1    8    2
 0.01670234227803863    2    1    8    3
 -0.0001894076692145525    2    1    8    4
 -6.459918769782676e-05    2    1    8    5
 7.54012888549517e-05    2    1    8    6
 -0.02739393044487176    2    1    8    7
 -0.02294838969917011    2    1    8    8
 0.02685567595291197    2    1    9    1
 -0.01694093359883028    2    1    9    2
 -0.008416034957147491    2    1    9    3
 -4.755196462038797e-05    2    1    9    4
 5.526106283706695e-05    2    1    9    5
 0.0002388769931416894    2    1    9    6
 -0.02792296348068156    2    1    9    7
 -0.009016192108867022    2    1    9    8
 0.02202272886705765    2    1    9    9
 -4.941380528386484e-05    2    1   10    1
 -0.006291087494851834    2    1   10    2
 0.0008211387649265796    2    1   10    3
 -0.0007575517194135953    2    1   10    4
 -0.0004986936058136573    2    1   10    5
 -0.001317390492503275    2    1   10    6
 0.001461908894116669    2    1   10    7
 -0.001417250915262606    2    1   10    8
 -0.006057379672423095    2    1   10    9
 0.0002073494911989795    2    1   10   10
 -0.002282039331739007    2    1   11    1
 -0.0004378811727882703    2    1   11    2
 0.001879312074451942    2    1   11    3
 0.0009060725638749104    2    1   11    4
 -0.0006222392927709244    2    1   11    5
 -0.00161314789711703    2    1   11    6
 -0.002964467839018674    2    1   11    7
 0.0002873427832104142    2    1   11    8
 0.003212986550873057    2    1   11    9
 0.001294864211916744    2    1   11   10
 0.001146686662896834    2    1   11   11
 0.001332661513098561    2    1   12    1
 0.003638316733982933    2    1   12    2
 -0.0005766436393670917    2    1   12    3
 -0.001731750387807023    2    1   12    4
 -0.0004979862528291404    2    1   12    5
 -0.001980579310613426    2    1   12    6
 -0.001046580782680954    2    1   12    7
 -0.00331909543994663    2    1   12    8
 -0.0006455761499539306    2    1   12    9
 -0.001437853173958457    2    1   12   10
 0.0004752262834290918    2    1   12   11
 6.58241861119421e-05    2    1   12   12
 -0.00280412064284673    2    1   13    1
 9.714907872691029e-06    2    1   13    2
 0.002892131147685495    2    1   13    3
 -0.0005884251552506781    2    1   13    4
 -0.0004481583130805709    2    1   13    5
 -0.0005450665732905203    2    1   13    6
 -0.005903008907911274    2    1   13    7
 -0.001218861717172966    2    1   13    8
 0.00493016055923535    2    1   13    9
 -2.345239878946976e-05    2    1   13   10
 0.0004806336077490183    2    1   13   11
 -0.00238483456298739    2    1   13   12
 -0.0001794625714786487    2    1   13   13
 0.0001219099258138915    2    1   14    1
 5.244654673014405e-05    2    1   14    2
 0.0007560456917638782    2    1   14    3
 0.006248707070846114    2    1   14    4
 -0.000905224616667222    2    1   14    5
 0.0003655624204624752    2    1   14    6
 -0.001875791294020696    2    1   14    7
 -0.003237681514744314    2    1   14    8
 -0.001423238503570629    2    1   14    9
 -0.001035371535282825    2    1   14   10
 -0.001259685588767613    2    1   14   11
 -0.001925907688114383    2    1   14   12
 -0.000629365503413415    2    1   14   13
 -0.001262755443973584    2    1   14   14
 0.006463446522370184    2    1   15    1
 -0.005442068962361382    2    1   15    2
 -0.002203792577220572    2    1   15    3
 0.006418925340266255    2    1   15    4
 -0.005323820389705775    2    1   15    5
 -0.00663509413678441    2    1   15    6
 -0.001149243509355247    2    1   15    7
 -0.003371202503180811    2    1   15    8
 -0.004738630984772998    2    1   15    9
 -0.001691493508697661    2    1   15   10
 -0.0004835859875961347    2    1   15   11
 0.000438133109155578    2    1   15   12
 -0.0006783953810478456    2    1   15   13
 -0.0006810362435233559    2    1   15   14
 -0.00646375615312889    2    1   15   15
 -0.0004053901888995701    2    1   16    1
 -0.0002153772225682801    2    1   16    2
 0.001476607424739161    2    1   16    3
 -0.002680145112275527    2    1   16    4
 0.0008733630458481819    2    1   16    5
 0.001247007496806822    2    1   16    6
 -0.002589349671417425    2    1   16    7
 -0.004743820524233206    2    1   16    8
 -0.00263940091348636    2    1   16    9
 8.222511770180464e-05    2    1   16   10
 -0.0007759558933027961    2    1   16   11
 -0.0002501688181731734    2    1   16   12
 -0.000400633700956139    2    1   16   13
 -0.0005381605247279735    2    1   16   14
 4.329632680796303e-05    2    1   16   15
 -0.004079379659852919    2    1   16   16
 0.01272080270937571    2    1   17    1
 0.002487738392201224    2    1   17    2
 -0.006913064348589688    2    1   17    3
 -0.002284407852194599    2    1   17    4
 -0.00361518536160735    2    1   17    5
 -0.004766910631921283    2    1   17    6
 -0.003500963195027012    2    1   17    7
 -0.005655563367351718    2    1   17    8
 0.004144429979603946    2    1   17    9
 -0.001961233682559598    2    1   17   10
 -0.000344653932787292    2    1   17   11
 0.0005916951295059166    2    1   17   12
 -6.937045830352964e-05    2    1   17   13
 -0.001180260135288079    2    1   17   14
 -0.003414341430219833    2    1   17   15
 -0.001329283263531225    2    1   17   16
 0.004986057489592921    2    1   17   17
 -0.005967500873032167    2    1   18    1
 0.005651986548310321    2    1   18    2
 0.001807677485977003    2    1   18    3
 0.006530031425875064    2    1   18    4
 -0.005021582959871841    2    1   18    5
 -0.006147694990146403    2    1   18    6
 0.001641817579592576    2    1   18    7
 0.003421692754441284    2    1   18    8
 0.004417600735651253    2    1   18    9
 0.001084516838054662    2    1   18   10
 -0.0003111446762640556    2    1   18   11
 -0.0007275414226522784    2    1   18   12
 0.0001190121237356827    2    1   18   13
 7.500518816737352e-05    2    1   18   14
 3.505610678982791e-05    2    1   18   15
 0.0008841303481562763    2    1   18   16
 0.001773519457976259    2    1   18   17
 -0.006290429989035445    2    1   18   18
 -0.004830655485282268    2    1   19    1
 -0.0007229245971752333    2    1   19    2
 0.002554211256637874    2    1   19    3
 -0.005778021681940597    2    1   19    4
 -0.009842871701932517    2    1   19    5
 -0.01325212198315226    2    1   19    6
 0.001406797282115416    2    1   19    7
 0.002367035034999492    2    1   19    8
 -0.001377008559311296    2    1   19    9
 0.001210625559405956    2    1   19   10
 -0.0007277388663423299    2    1   19   11
 0.0005284167742179292    2    1   19   12
 0.0005762190726630615    2    1   19   13
 -0.0009849341190894612    2    1   19   14
 -0.001414383113669566    2    1   19   15
 0.0009048222883502876    2    1   19   16
 4.810113999244391e-05    2    1   19   17
 -0.003628911878050335    2    1   19   18
 0.004798394754905188    2    1   19   19
 0.2824543152670929    2    2    1    1
 -0.002526928993975308    2    2    2    1
 0.2921633538302938    2    2    2    2
 -0.05263653224542572    2    2    3    1
 0.00217520969948194    2    2    3    2
 0.2131372886344664    2    2    3    3
 0.0001097557648342105    2    2    4    1
 5.280764138014793e-05    2    2    4    2
 -4.449484001010322e-05    2    2    4    3
 0.2451108027410761    2    2    4    4
 -0.0001380782521233523    2    2    5    1
 -0.0002881214256586745    2    2    5    2
 -0.0001114115625383476    2    2    5    3
 -0.004204047415455325    2    2    5    4
 0.2021061670718651    2    2    5    5
 -5.314413831520674e-05    2    2    6    1
 3.182168980680129e-05    2    2    6    2
 -9.941952723725326e-05    2    2    6    3
 0.006413095930983437    2    2    6    4
 0.04326820710009681    2    2    6    5
 0.2274883787950321    2    2    6    6
 0.003229790283503136    2    2    7    1
 0.006395755584516848    2    2    7    2
 -0.01548209066464735    2    2    7    3
 0.0001139785422196996    2    2    7    4
 0.0002618261521611022    2    2    7    5
 3.64912683955742e-05    2    2    7    6
 0.1863695524125071    2    2    7    7
 -0.01776161337387664    2    2    8    1
 -0.02205941890336555    2    2    8    2
 -0.002604111020679986    2    2    8    3
 -0.0001130439585019881    2    2    8    4
 0.0001019707318411646    2    2    8    5
 -0.000203155470653772    2    2    8    6
 0.02047719250606969    2    2    8    7
 0.2040678397658744    2    2    8    8
 -0.004036354724934041    2    2    9    1
 0.007845733735223992    2    2    9    2
 0.0003478332312027346    2    2    9    3
 -7.578454619101453e-05    2    2    9    4
 -2.866060089389188e-05    2    2    9    5
 6.278691670444258e-05    2    2    9    6
 -0.01831203453816367    2    2    9    7
 0.01638036115176994    2    2    9    8
 0.2158360243020364    2    2    9    9
 -0.003812475206161672    2    2   10    1
 0.001612551448202767    2    2   10    2
 0.003362050988650224    2    2   10    3
 -0.001574203850440125    2    2   10    4
 -0.0003990632630927214    2    2   10    5
 -0.00106816701733253    2    2   10    6
 0.0002605776198834119    2    2   10    7
 0.002735344739448025    2    2   10    8
 -0.003065900420013028    2    2   10    9
 0.2319195257265016    2    2   10   10
 0.0002375670228955506    2    2   11    1
 -0.002778593332124826    2    2   11    2
 9.609847168938457e-06    2    2   11    3
 -0.0006438770261913703    2    2   11    4
 0.001895824355071398    2    2   11    5
 0.001645825142251874    2    2   11    6
 -0.001788466785570878    2    2   11    7
 0.002481470801081938    2    2   11    8
 0.002091535212680723    2    2   11    9
 -0.001384542352382773    2    2   11   10
 0.2315149520870438    2    2   11   11
 0.002481080713004014    2    2   12    1
 0.0002480087999666761    2    2   12    2
 -0.0003744640482916439    2    2   12    3
 -0.002416532456071022    2    2   12    4
 -0.0006231592276033232    2    2   12    5
 -0.002096317815469791    2    2   12    6
 0.003196534705440365    2    2   12    7
 0.0007327027205953973    2    2   12    8
 0.001095399757017183    2    2   12    9
 -0.0001491876966757838    2    2   12   10
 -0.0002008979671304169    2    2   12   11
 0.2289945923454636    2    2   12   12
 0.0006163585884414202    2    2   13    1
 -0.004153896182522687    2    2   13    2
 -0.0001881397339754375    2    2   13    3
 -0.001132774755954864    2    2   13    4
 -0.001225159503200285    2    2   13    5
 -0.00104956567873706    2    2   13    6
 -0.001706703995115062    2    2   13    7
 0.004813526528973579    2    2   13    8
 0.004693775264048272    2    2   13    9
 -0.001578275521352926    2    2   13   10
 0.000222849882734349    2    2   13   11
 0.0002895654112436394    2    2   13   12
 0.2323976836088016    2    2   13   13
 0.0003386384586670198    2    2   14    1
 -0.0003750551310391409    2    2   14    2
 0.0009919531536483857    2    2   14    3
 0.0009647744181447161    2    2   14    4
 0.004637734752567774    2    2   14    5
 0.006369018627662558    2    2   14    6
 0.001900161513972087    2    2   14    7
 0.002913032970638188    2    2   14    8
 0.0009860797690977648    2    2   14    9
 8.173305566815894e-05    2    2   14   10
 0.001080383761619278    2    2   14   11
 -0.0006455032363363796    2    2   14   12
 -0.0007247004624711816    2    2   14   13
 0.2311831386641587    2    2   14   14
 -0.006341376898705482    2    2   15    1
 0.006185262504027629    2    2   15    2
 -0.0003997143119659448    2    2   15    3
 -0.0043800760536178    2    2   15    4
 0.001557888885899749    2    2   15    5
 0.007302379921827261    2    2   15    6
 0.001894055895057372    2    2   15    7
 0.0002139270398446799    2    2   15    8
 0.004011185513016411    2    2   15    9
 0.001134104575864959    2    2   15   10
 -0.0009334295543945142    2    2   15   11
 0.0002751033932106178    2    2   15   12
 -0.0008395072888069366    2    2   15   13
 0.00117765673199569    2    2   15   14
 0.2288284453789574    2    2   15   15
 0.0002164016252250914    2    2   16    1
 -0.0009493994578704055    2    2   16    2
 0.001806190528146112    2    2   16    3
 0.001373251094289768    2    2   16    4
 -0.002090540276443148    2    2   16    5
 -0.002335066516494957    2    2   16    6
 0.002942110726786664    2    2   16    7
 0.004591063821838301    2    2   16    8
 0.0009181371526142433    2    2   16    9
 0.001117150392920322    2    2   16   10
 -8.659985465911567e-05    2    2   16   11
 0.0002939741078710651    2    2   16   12
 0.0002012262971066468    2    2   16   13
 -0.0002431480583510501    2    2   16   14
 -0.0001027252357150019    2    2   16   15
 0.2295792531114345    2    2   16   16
 0.005192778446292411    2    2   17    1
 0.009577697255643091    2    2   17    2
 -0.003419291297001414    2    2   17    3
 -0.004483843940820698    2    2   17    4
 0.0008061235454729716    2    2   17    5
 -0.00228199692752502    2    2   17    6
 -0.001178611011477088    2    2   17    7
 0.0003094359498177664    2    2   17    8
 0.008002758840976155    2    2   17    9
 -0.00120675896889648    2    2   17   10
 2.695932606057711e-05    2    2   17   11
 0.0007621234909079743    2    2   17   12
 0.0007437904613222393    2    2   17   13
 -3.568068200133e-05    2    2   17   14
 0.003331133904188524    2    2   17   15
 -7.755380435873566e-05    2    2   17   16
 0.2342463690307051    2    2   17   17
 0.006451818098023691    2    2   18    1
 -0.005658351104788038    2    2   18    2
 0.0003016499428420566    2    2   18    3
 -0.003932642526088304    2    2   18    4
 0.001470810878139659    2    2   18    5
 0.007443048732544835    2    2   18    6
 -0.001651993272132466    2    2   18    7
 -0.000730562824286932    2    2   18    8
 -0.004352558704049764    2    2   18    9
 -0.00089381074263648    2    2   18   10
 8.875906118465101e-05    2    2   18   11
 -0.0003038253365403936    2    2   18   12
 0.0009872626150980801    2    2   18   13
 0.0004777208964461889    2    2   18   14
 -0.0006347867341105137    2    2   18   15
 -0.001026011706188664    2    2   18   16
 -0.001582430806713974    2    2   18   17
 0.2285330986762838    2    2   18   18
 -0.001734059905235933    2    2   19    1
 -0.003663961052605013    2    2   19    2
 0.001210560534945815    2    2   19    3
 -0.01237741058911374    2    2   19    4
 0.002491493328131803    2    2   19    5
 -0.005851379335845157    2    2   19    6
 0.0003422965786508574    2    2   19    7
 -0.0003026346258126725    2    2   19    8
 -0.00314542202152371    2    2   19    9
 0.0006875427359889111    2    2   19   10
 1.409441526088967e-05    2    2   19   11
 1.796555677785777e-05    2    2   19   12
 0.0001813706402945683    2    2   19   13
 -0.0004826246935469546    2    2   19   14
 0.00148324846133363    2    2   19   15
 1.40765208036457e-05    2    2   19   16
 -0.0004585656134519331    2    2   19   17
 0.003230224283273933    2    2   19   18
 0.2334017730957557    2    2   19   19
 -0.0007165651512281276    3    1    1    1
 -0.0003723150381807483    3    1    2    1
 -0.05263653224542569    3    1    2    2
 0.07930489887758059    3    1    3    1
 -0.0009350337506896845    3    1    3    2
 0.05659644703684021    3    1    3    3
 -0.0001092841004374512    3    1    4    1
 5.138702763433364e-06    3    1    4    2
 -0.0001888848610301266    3    1    4    3
 -0.03575563743720862    3    1    4    4
 0.0002183563715746581    3    1    5    1
 0.0001945955380521231    3    1    5    2
 6.381198126947921e-05    3    1    5    3
 0.004734537736461281    3    1    5    4
 0.02640414977304141    3    1    5    5
 2.69190678460727e-05    3    1    6    1
 5.161511380322039e-06    3    1    6    2
 3.943955103734175e-05    3    1    6    3
 -0.01136556618333373    3    1    6    4
 -0.05883153261134542    3    1    6    5
 0.01101773461794877    3    1    6    6
 0.0006003404631709619    3    1    7    1
 -0.00762605252343165    3    1    7    2
 0.02040977143331444    3    1    7    3
 -0.0001650839481727471    3    1    7    4
 -0.000243634822738382    3    1    7    5
 -9.44275102314719e-05    3    1    7    6
 -0.002417570878793959    3    1    7    7
 0.02636744660131923    3    1    8    1
 0.01628162205339551    3    1    8    2
 0.009252938317436453    3    1    8    3
 7.28348297553649e-05    3    1    8    4
 9.62542441737683e-06    3    1    8    5
 0.0003841116752573174    3    1    8    6
 -0.02513722853973248    3    1    8    7
 0.01065079465577786    3    1    8    8
 0.001397008646043158    3    1    9    1
 -0.008707974419859295    3    1    9    2
 0.01667245284243061    3    1    9    3
 -7.664301563897292e-05    3    1    9    4
 1.037068357648102e-05    3    1    9    5
 -0.0002536315202610039    3    1    9    6
 0.0262366573132924    3    1    9    7
 -0.02345877771949633    3    1    9    8
 -0.007958324036218012    3    1    9    9
 0.001177399309659679    3    1   10    1
 -0.001435058530407    3    1   10    2
 -0.004136796978140837    3    1   10    3
 0.0005444658480704657    3    1   10    4
 0.0003289219173605902    3    1   10    5
 0.0007792786898324684    3    1   10    6
 0.0012441303802851    3    1   10    7
 -0.005687032261128731    3    1   10    8
 0.004854089282078882    3    1   10    9
 0.0006059162132519935    3    1   10   10
 -0.0003522750262187359    3    1   11    1
 0.001869785092923662    3    1   11    2
 0.0003628133748281744    3    1   11    3
 0.0004085059460056833    3    1   11    4
 0.0006124248772679624    3    1   11    5
 -0.002714320890596509    3    1   11    6
 0.002308807020503944    3    1   11    7
 -0.003226208611964195    3    1   11    8
 0.000263220274793389    3    1   11    9
 0.002203453363422706    3    1   11   10
 -0.00097991051878699    3    1   11   11
 -0.00302160636976281    3    1   12    1
 -0.0003174414240395527    3    1   12    2
 -0.002181552571577661    3    1   12    3
 0.0007138135541755971    3    1   12    4
 0.0008250703699388543    3    1   12    5
 0.001242589187975331    3    1   12    6
 -0.004477717484352951    3    1   12    7
 0.002240811157932435    3    1   12    8
 -0.004102558833816532    3    1   12    9
 -0.0001599558393160029    3    1   12   10
 0.0002715554120911556    3    1   12   11
 0.00298056024022558    3    1   12   12
 -0.0006882246256052615    3    1   13    1
 0.002964529098896546    3    1   13    2
 0.0004752270015687348    3    1   13    3
 0.0005586446668118945    3    1   13    4
 0.0004426687722315082    3    1   13    5
 0.001025681910190277    3    1   13    6
 0.002052370142830388    3    1   13    7
 -0.00431112804049263    3    1   13    8
 -0.001562876816386428    3    1   13    9
 0.002040000201164333    3    1   13   10
 0.0002070313124501824    3    1   13   11
 -0.0007246091913477761    3    1   13   12
 -0.002282795260555232    3    1   13   13
 -0.001703172374126315    3    1   14    1
 9.768203596626708e-05    3    1   14    2
 -0.002915555983577836    3    1   14    3
 -0.001237641063601395    3    1   14    4
 -0.00598069355650406    3    1   14    5
 0.0004018371202416677    3    1   14    6
 -0.002169456977144954    3    1   14    7
 -0.001677672661302329    3    1   14    8
 -0.001553746089671732    3    1   14    9
 0.0003824342855586003    3    1   14   10
 -0.001687587671255174    3    1   14   11
 0.0009108751254130319    3    1   14   12
 0.0009609289903044449    3    1   14   13
 0.0009523741079371312    3    1   14   14
 0.009065470745995672    3    1   15    1
 -0.002328717410431806    3    1   15    2
 0.005366497513520047    3    1   15    3
 0.004484238866266648    3    1   15    4
 0.005421769861503565    3    1   15    5
 -0.01081506535864885    3    1   15    6
 -0.002530400646434308    3    1   15    7
 0.004696315284275616    3    1   15    8
 -0.003250169884241123    3    1   15    9
 -0.002024943094221774    3    1   15   10
 0.0005141403194817752    3    1   15   11
 0.0002568223562703821    3    1   15   12
 0.0003321907756462498    3    1   15   13
 -0.001234774743482508    3    1   15   14
 0.004365267139533573    3    1   15   15
 -0.002330865579139341    3    1   16    1
 0.0003688681447725785    3    1   16    2
 -0.004556108050098519    3    1   16    3
 0.0002969183689711591    3    1   16    4
 0.003064898847445655    3    1   16    5
 -0.001410829415427676    3    1   16    6
 -0.00325287070060105    3    1   16    7
 -0.002813044173659221    3    1   16    8
 -0.001756980862431009    3    1   16    9
 -0.0004660276778872497    3    1   16   10