 &FCI NORB=   5,NELEC= 7,MS2=3,
  ORBSYM=1,1,1,1,1,
  ISYM=1,
 &END
 0.9401023333174101    1    1    1    1
 7.962032934335977e-05    1    1    2    1
 0.8559138829052622    1    1    2    2
 -0.0001839587164677986    1    1    3    1
 8.062576374340025e-05    1    1    3    2
 0.8559157237883768    1    1    3    3
 4.933813302629472e-05    1    1    4    1
 -0.0007668717593983951    1    1    4    2
 0.002636400099533206    1    1    4    3
 0.8925527079255557    1    1    4    4
 0.0001571154778843425    1    1    5    1
 -0.001512486553142747    1    1    5    2
 -0.001456067019164509    1    1    5    3
 -0.001055607508752981    1    1    5    4
 0.8918828526866643    1    1    5    5
 7.962032934339218e-05    2    1    1    1
 0.04128465975275607    2    1    2    1
 9.994985613990497e-05    2    1    2    2
 8.753356879919885e-06    2    1    3    1
 -0.0001314464809793941    2    1    3    2
 -0.001357166044568966    2    1    3    3
 0.0001538052577350279    2    1    4    1
 -9.024789496018888e-05    2    1    4    2
 -0.000563334891486629    2    1    4    3
 0.002030266822802352    2    1    4    4
 7.037098405902301e-05    2    1    5    1
 -0.0001040244319403241    2    1    5    2
 0.0004558614113189246    2    1    5    3
 0.01860068063492698    2    1    5    4
 -0.0004611688571973999    2    1    5    5
 0.8559138829052625    2    2    1    1
 9.994985613986945e-05    2    2    2    1
 0.9371654014583863    2    2    2    2
 -0.0002723626977302197    2    2    3    1
 6.913667973416988e-05    2    2    3    2
 0.8969311007197798    2    2    3    3
 0.000248117280287797    2    2    4    1
 -0.0004352778918444499    2    2    4    2
 0.0003187781805348667    2    2    4    3
 0.8697105842368474    2    2    4    4
 0.0003347443643420406    2    2    5    1
 -0.001385255036723987    2    2    5    2
 0.001658142347880517    2    2    5    3
 0.001246207274251891    2    2    5    4
 0.8689304814332217    2    2    5    5
 -0.0001839587164677621    3    1    1    1
 8.753356879920349e-06    3    1    2    1
 -0.0002723626977302594    3    1    2    2
 0.0412085344271124    3    1    3    1
 0.0006729725717710021    3    1    3    2
 3.989810670717366e-05    3    1    3    3
 -0.0004316872162913932    3    1    4    1
 0.0001246932614079755    3    1    4    2
 0.0003397115823315713    3    1    4    3
 0.01848038023847268    3    1    4    4
 0.0006832998371449819    3    1    5    1
 -8.363747399305321e-05    3    1    5    2
 0.0003944998772072068    3    1    5    3
 -0.001240454164254475    3    1    5    4
 -0.01876230448175549    3    1    5    5
 8.062576374320161e-05    3    2    1    1
 -0.0001314464809794048    3    2    2    1
 6.913667973410803e-05    3    2    2    2
 0.0006729725717709938    3    2    3    1
 0.02003905419722131    3    2    3    2
 8.624939109409697e-05    3    2    3    3
 0.0004318544228387407    3    2    4    1
 0.0007317895355407849    3    2    4    2
 -0.0008556026780918635    3    2    4    3
 0.0007108845125908125    3    2    4    4
 -0.0003722548735420569    3    2    5    1
 -0.0008785991921103851    3    2    5    2
 -0.0007069767918019579    3    2    5    3
 -0.0001174166084634958    3    2    5    4
 -0.000562389694345656    3    2    5    5
 0.8559157237883768    3    3    1    1
 -0.001357166044569039    3    3    2    1
 0.89693110071978    3    3    2    2
 3.989810670715863e-05    3    3    3    1
 8.624939109400044e-05    3    3    3    2
 0.9369179009458558    3    3    3    3
 -0.0006710905869623819    3    3    4    1
 0.001259104700029399    3    3    4    2
 0.001772943922394976    3    3    4    3
 0.8696288803094493    3    3    4    4
 -0.0006440996219621575    3    3    5    1
 -1.070008132886269e-05    3    3    5    2
 -7.794563416803346e-05    3    3    5    3
 0.0001046183807913575    3    3    5    4
 0.8686707751795153    3    3    5    5
 4.933813302647029e-05    4    1    1    1
 0.000153805257735039    4    1    2    1
 0.0002481172802878823    4    1    2    2
 -0.0004316872162913897    4    1    3    1
 0.0004318544228387617    4    1    3    2
 -0.0006710905869624348    4    1    3    3
 0.02543457260351552    4    1    4    1
 -0.0009769294105587381    4    1    4    2
 -0.009355764286944818    4    1    4    3
 5.914693249188268e-05    4    1    4    4
 0.0005866768143017718    4    1    5    1
 -0.009332870222327089    4    1    5    2
 0.001113829673960369    4    1    5    3
 -0.0002943843797496719    4    1    5    4
 0.0005150886322655441    4    1    5    5
 -0.0007668717593985416    4    2    1    1
 -9.024789496018314e-05    4    2    2    1
 -0.0004352778918445556    4    2    2    2
 0.0001246932614079728    4    2    3    1
 0.000731789535540789    4    2    3    2
 0.001259104700029427    4    2    3    3
 -0.0009769294105587516    4    2    4    1
 0.03604499096360009    4    2    4    2
 -0.0003378570080931123    4    2    4    3
 -0.0004485941005397017    4    2    4    4
 -0.00933069235880668    4    2    5    1
 -0.0005489392300526918    4    2    5    2
 -0.01610886461765926    4    2    5    3
 0.0004274677115071895    4    2    5    4
 -0.001744033227835587    4    2    5    5
 0.002636400099533377    4    3    1    1
 -0.0005633348914866374    4    3    2    1
 0.0003187781805348875    4    3    2    2
 0.0003397115823315734    4    3    3    1
 -0.0008556026780918434    4    3    3    2
 0.001772943922394909    4    3    3    3
 -0.009355764286944838    4    3    4    1
 -0.0003378570080931264    4    3    4    2
 0.03624985026204686    4    3    4    3
 0.0017606383301475    4    3    4    4
 0.0001341705270366432    4    3    5    1
 0.01606124994551198    4    3    5    2
 -2.209997250112613e-05    4    3    5    3
 0.0001702398472864196    4    3    5    4
 0.001877023889339477    4    3    5    5
 0.892552707925556    4    4    1    1
 0.002030266822802328    4    4    2    1
 0.8697105842368469    4    4    2    2
 0.01848038023847268    4    4    3    1
 0.0007108845125902629    4    4    3    2
 0.8696288803094493    4    4    3    3
 5.914693249190353e-05    4    4    4    1
 -0.0004485941005395734    4    4    4    2
 0.001760638330147389    4    4    4    3
 0.9476187079031504    4    4    4    4
 0.0007155155540061187    4    4    5    1
 -0.00218921495154616    4    4    5    2
 -0.0004325689767110397    4    4    5    3
 0.0001119902735267145    4    4    5    4
 0.8735450646322724    4    4    5    5
 0.0001571154778843047    5    1    1    1
 7.037098405901191e-05    5    1    2    1
 0.0003347443643420513    5    1    2    2
 0.0006832998371449858    5    1    3    1
 -0.0003722548735420572    5    1    3    2
 -0.0006440996219619023    5    1    3    3
 0.0005866768143017539    5    1    4    1
 -0.009330692358806665    5    1    4    2
 0.0001341705270366324    5    1    4    3
 0.0007155155540063591    5    1    4    4
 0.02533364062621279    5    1    5    1
 0.0002693977724307251    5    1    5    2
 0.009329732896192868    5    1    5    3
 -0.0002630524653038963    5    1    5    4
 0.0001517829603220502    5    1    5    5
 -0.001512486553142669    5    2    1    1
 -0.0001040244319403372    5    2    2    1
 -0.001385255036723934    5    2    2    2
 -8.363747399305164e-05    5    2    3    1
 -0.0008785991921104056    5    2    3    2
 -1.070008132889316e-05    5    2    3    3
 -0.009332870222327082    5    2    4    1
 -0.0005489392300527071    5    2    4    2
 0.01606124994551201    5    2    4    3
 -0.002189214951546308    5    2    4    4
 0.0002693977724307246    5    2    5    1
 0.03617467065684345    5    2    5    2
 0.0003493606935737596    5    2    5    3
 0.0006521162543683921    5    2    5    4
 -0.001353993802680991    5    2    5    5
 -0.001456067019164446    5    3    1    1
 0.0004558614113189063    5    3    2    1
 0.001658142347880516    5    3    2    2
 0.0003944998772071974    5    3    3    1
 -0.0007069767918020006    5    3    3    2
 -7.794563416813082e-05    5    3    3    3
 0.001113829673960394    5    3    4    1
 -0.01610886461765925    5    3    4    2
 -2.209997250113823e-05    5    3    4    3
 -0.0004325689767110936    5    3    4    4
 0.009329732896192836    5    3    5    1
 0.0003493606935737837    5    3    5    2
 0.03607292571703012    5    3    5    3
 -3.869728022109619e-05    5    3    5    4
 -9.20880566105866e-05    5    3    5    5
 -0.001055607508752963    5    4    1    1
 0.01860068063492698    5    4    2    1
 0.001246207274251832    5    4    2    2
 -0.001240454164254469    5    4    3    1
 -0.0001174166084634977    5    4    3    2
 0.0001046183807913288    5    4    3    3
 -0.0002943843797496545    5    4    4    1
 0.0004274677115072271    5    4    4    2
 0.0001702398472864069    5    4    4    3
 0.0001119902735269316    5    4    4    4
 -0.0002630524653039036    5    4    5    1
 0.0006521162543683891    5    4    5    2
 -3.869728022108058e-05    5    4    5    3
 0.03662624653751925    5    4    5    4
 0.0001078948226945486    5    4    5    5
 0.8918828526866643    5    5    1    1
 -0.0004611688571974384    5    5    2    1
 0.8689304814332224    5    5    2    2
 -0.01876230448175554    5    5    3    1
 -0.0005623896943460295    5    5    3    2
 0.8686707751795152    5    5    3    3
 0.0005150886322654996    5    5    4    1
 -0.00174403322783545    5    5    4    2
 0.001877023889339289    5    5    4    3
 0.873545064632272    5    5    4    4
 0.0001517829603223386    5    5    5    1
 -0.001353993802681135    5    5    5    2
 -9.208805661073405e-05    5    5    5    3
 0.0001078948226946944    5    5    5    4
 0.946007819480714    5    5    5    5
 -5.883066635672917    1    1  0  0
 -0.0005828813287481163    2    1  0  0
 -5.868663428947881    2    2  0  0
 0.0008594663020890133    3    1  0  0
 -0.0004448361534402533    3    2  0  0
 -5.866042178667779    3    3  0  0
 -0.000499891196062872    4    1  0  0
 0.003006316701121783    4    2  0  0
 -0.009345970657448889    4    3  0  0
 -5.869973637099532    4    4  0  0
 -0.001122322712511919    5    1  0  0
 0.007951520194681124    5    2  0  0
 2.758281697761837e-05    5    3  0  0
 -0.0005766930083951258    5    4  0  0
 -5.861374463759002    5    5  0  0
 -2332.258061960192  0  0  0  0
