 &FCI NORB=  22,NELEC=31,MS2=3,
  ORBSYM=1,1,1,1,1,1,1,1,1,1,1,1,1,1,1,1,1,1,1,1,1,1,
  ISYM=1,
 &END
 0.2484382279726365    1    1    1    1
 0.000784148160344124    1    1    2    1
 0.2032314237785365    1    1    2    2
 0.003439610454314093    1    1    3    1
 -0.0103874183164297    1    1    3    2
 0.1763916096863744    1    1    3    3
 0.003381149061058093    1    1    4    1
 0.002539926874530541    1    1    4    2
 0.008027858283145358    1    1    4    3
 0.1669637574100366    1    1    4    4
 -0.005318077728492695    1    1    5    1
 0.001337218213431562    1    1    5    2
 -0.0004357468646048526    1    1    5    3
 0.003973827111438814    1    1    5    4
 0.1716825327313854    1    1    5    5
 0.01342232592403248    1    1    6    1
 0.02485712962957769    1    1    6    2
 0.002991402026860999    1    1    6    3
 -0.006232585273070582    1    1    6    4
 0.00133958201700244    1    1    6    5
 0.1673044565597809    1    1    6    6
 -0.001728331466958831    1    1    7    1
 0.008597576775665182    1    1    7    2
 -0.001364141518067646    1    1    7    3
 -0.007530494156693436    1    1    7    4
 0.004994261130619374    1    1    7    5
 0.002598901276204476    1    1    7    6
 0.168567091428411    1    1    7    7
 0.0037003814418589    1    1    8    1
 0.006960148708115051    1    1    8    2
 -0.002633613957930943    1    1    8    3
 -0.0005345193902377452    1    1    8    4
 -0.002607168591292045    1    1    8    5
 -0.001853644720382175    1    1    8    6
 0.001079608932451467    1    1    8    7
 0.1632595220009758    1    1    8    8
 -0.001253005243650554    1    1    9    1
 0.002236206813767445    1    1    9    2
 -0.001890778952915521    1    1    9    3
 -0.001840934167460917    1    1    9    4
 0.0006716081587908983    1    1    9    5
 -0.0006828805807056255    1    1    9    6
 0.0004652233837449246    1    1    9    7
 -0.000295234360857287    1    1    9    8
 0.1664133266951598    1    1    9    9
 0.002840990035121484    1    1   10    1
 0.01034088641475759    1    1   10    2
 0.007620105728300777    1    1   10    3
 -0.008129605806067084    1    1   10    4
 0.002622285519449085    1    1   10    5
 -0.01784659961184288    1    1   10    6
 -0.006020948591224868    1    1   10    7
 -0.004180712703117776    1    1   10    8
 0.001381005519638104    1    1   10    9
 0.1413176149513877    1    1   10   10
 -0.00549400398523916    1    1   11    1
 -0.001501859119843034    1    1   11    2
 0.000118297988556012    1    1   11    3
 -0.001113580202327431    1    1   11    4
 -7.740526707665629e-05    1    1   11    5
 -0.001287529769227017    1    1   11    6
 0.002446131678029032    1    1   11    7
 -0.003002009428273945    1    1   11    8
 -0.001657865053217985    1    1   11    9
 0.0008624886793209616    1    1   11   10
 0.1650497576732786    1    1   11   11
 -0.002759833402256648    1    1   12    1
 -0.003842262703333102    1    1   12    2
 -0.001320542672953885    1    1   12    3
 -0.001275596423731299    1    1   12    4
 -0.0006448458912965868    1    1   12    5
 0.001884624801712725    1    1   12    6
 0.002269950598538985    1    1   12    7
 -0.003925994542768732    1    1   12    8
 0.003606917200088179    1    1   12    9
 -0.003792179372991978    1    1   12   10
 0.002573229198193845    1    1   12   11
 0.1602230546311418    1    1   12   12
 -0.001200375127818483    1    1   13    1
 -0.00034168687064448    1    1   13    2
 0.0005186727026606225    1    1   13    3
 -0.0002617072983885755    1    1   13    4
 0.0007771733156679804    1    1   13    5
 3.164306875110176e-05    1    1   13    6
 0.0006205143944126764    1    1   13    7
 -0.0006304684168177456    1    1   13    8
 9.340884480060229e-06    1    1   13    9
 -9.352176298162478e-05    1    1   13   10
 0.0004337982910031789    1    1   13   11
 0.0005339133013134272    1    1   13   12
 0.1866991467412787    1    1   13   13
 0.002003294533882839    1    1   14    1
 -0.0003122359816768952    1    1   14    2
 0.00055906326841771    1    1   14    3
 0.0003743061773080758    1    1   14    4
 -0.002064259260109928    1    1   14    5
 -9.540531021006748e-05    1    1   14    6
 -0.0002208756583614808    1    1   14    7
 -7.979728318912244e-05    1    1   14    8
 0.0004568862362204486    1    1   14    9
 1.040498021265932e-05    1    1   14   10
 -0.000371761295067681    1    1   14   11
 -5.657483115770941e-05    1    1   14   12
 -0.0004462355822803891    1    1   14   13
 0.1875192007345078    1    1   14   14
 -0.0001043296587881596    1    1   15    1
 5.531456472805725e-05    1    1   15    2
 -0.000160879021003841    1    1   15    3
 9.123234115647596e-05    1    1   15    4
 -0.000113464987797577    1    1   15    5
 -0.0007367465248070237    1    1   15    6
 -0.0001789546096716075    1    1   15    7
 6.410815269455993e-05    1    1   15    8
 -8.663069382214918e-05    1    1   15    9
 0.003385019107932087    1    1   15   10
 -0.00013319064824541    1    1   15   11
 0.0001889254614579973    1    1   15   12
 -0.0005364110160651541    1    1   15   13
 -0.0001089954023265858    1    1   15   14
 0.187122975884092    1    1   15   15
 0.0005142480018499253    1    1   16    1
 0.0001981758078106908    1    1   16    2
 -0.0003467440153488309    1    1   16    3
 0.000787928562408177    1    1   16    4
 -0.0005224392456203952    1    1   16    5
 0.0001023501936523701    1    1   16    6
 0.000670768566270774    1    1   16    7
 -0.002349389282364997    1    1   16    8
 0.0003901544647053714    1    1   16    9
 -0.0003997798887508573    1    1   16   10
 -0.001525304554623654    1    1   16   11
 -0.002626020255558135    1    1   16   12
 -0.0001852358635846936    1    1   16   13
 5.496649683310613e-05    1    1   16   14
 6.890231132040239e-05    1    1   16   15
 0.1856563373956309    1    1   16   16
 -0.0009122700799365995    1    1   17    1
 -0.0001659166397159122    1    1   17    2
 -0.0005348216590360985    1    1   17    3
 -0.001044234140718362    1    1   17    4
 0.0002798324728790958    1    1   17    5
 0.001278556413211407    1    1   17    6
 -0.002351821454809392    1    1   17    7
 -0.0005152577476015149    1    1   17    8
 0.0005396877957132925    1    1   17    9
 -0.000275516468830408    1    1   17   10
 0.002645100180780756    1    1   17   11
 -0.001187221088980693    1    1   17   12
 0.0001586529087035681    1    1   17   13
 -0.000222195407844465    1    1   17   14
 0.0001322404996278772    1    1   17   15
 -0.0003446663163854468    1    1   17   16
 0.1861007298097087    1    1   17   17
 1.893667008797342e-05    1    1   18    1
 -8.564292912344046e-05    1    1   18    2
 -6.944605547701942e-06    1    1   18    3
 0.0003595353594981615    1    1   18    4
 -0.0001948197953776153    1    1   18    5
 -0.001331455714624861    1    1   18    6
 -0.0004283265280130523    1    1   18    7
 0.0004298774383045115    1    1   18    8
 3.256203960405818e-05    1    1   18    9
 0.003768319755476671    1    1   18   10
 -0.0001483710824250905    1    1   18   11
 -0.0001884269022298667    1    1   18   12
 -0.0007763508861050786    1    1   18   13
 -0.0001611138165300433    1    1   18   14
 -0.0005157631473640976    1    1   18   15
 0.0002444872824012434    1    1   18   16
 0.0001936007461221504    1    1   18   17
 0.1867041166303621    1    1   18   18
 0.0006171370236626358    1    1   19    1
 0.0002708477608485331    1    1   19    2
 -0.000753003921939661    1    1   19    3
 0.0005642825397761797    1    1   19    4
 -3.206029369427435e-05    1    1   19    5
 0.000207674407495126    1    1   19    6
 -0.000284030139676741    1    1   19    7
 -0.001120905908527889    1    1   19    8
 0.0004131691944886236    1    1   19    9
 -0.000321110569463636    1    1   19   10
 -0.001621007243433045    1    1   19   11
 -0.002483791198323251    1    1   19   12
 -0.0002290524823834895    1    1   19   13
 0.0001933711384874789    1    1   19   14
 0.0001573952322544633    1    1   19   15
 -0.00167542010423481    1    1   19   16
 -0.0005874424434941081    1    1   19   17
 0.0003909185575718075    1    1   19   18
 0.1843270223898606    1    1   19   19
 -0.001808705200300105    1    1   20    1
 -5.007759030312002e-06    1    1   20    2
 -0.0003468327184302602    1    1   20    3
 -0.0009802597113904993    1    1   20    4
 -0.0001678286983542324    1    1   20    5
 0.0008721138758392122    1    1   20    6
 -0.0009926825531099768    1    1   20    7
 -0.0006475561225901679    1    1   20    8
 0.0002600293850951031    1    1   20    9
 -0.0001267847969556343    1    1   20   10
 0.00298559305316606    1    1   20   11
 -0.0006911949098801007    1    1   20   12
 0.0003289326166466328    1    1   20   13
 -0.0005383847991033131    1    1   20   14
 0.0001826932652833997    1    1   20   15
 -0.0004563067800159812    1    1   20   16
 -0.001110932006977657    1    1   20   17
 0.0003237543469199635    1    1   20   18
 -0.001064915519091605    1    1   20   19
 0.1861234625921623    1    1   20   20
 -0.003059185133814793    1    1   21    1
 0.0005952905919439082    1    1   21    2
 -0.0002746529048126653    1    1   21    3
 -0.0001497762026249232    1    1   21    4
 0.002452342802762299    1    1   21    5
 -0.0003042916014469423    1    1   21    6
 0.001332171209835866    1    1   21    7
 2.511672885337494e-05    1    1   21    8
 -0.0006289887955170278    1    1   21    9
 0.0003740327456550657    1    1   21   10
 0.000184300318939817    1    1   21   11
 0.0002821610880909664    1    1   21   12
 0.0004630219007456705    1    1   21   13
 -0.0001051923967391806    1    1   21   14
 6.632901027728789e-05    1    1   21   15
 -7.726091375159971e-05    1    1   21   16
 0.0008143309434770625    1    1   21   17
 0.0001593508263822975    1    1   21   18
 -8.004440506267846e-05    1    1   21   19
 0.001527677625373047    1    1   21   20
 0.1877390127306044    1    1   21   21
 0.002035228519978628    1    1   22    1
 0.001004985386321913    1    1   22    2
 -0.001663499219623816    1    1   22    3
 0.001622447776674037    1    1   22    4
 -0.002037962855029111    1    1   22    5
 -0.000902734795990059    1    1   22    6
 -0.0009887932230524426    1    1   22    7
 0.0008089625059827642    1    1   22    8
 -2.418081573495559e-05    1    1   22    9
 0.000570488595893943    1    1   22   10
 -0.0006175720625152053    1    1   22   11
 -0.000573428968554941    1    1   22   12
 0.0004353460889579044    1    1   22   13
 0.0003570958967084942    1    1   22   14
 0.0005142538415492655    1    1   22   15
 0.0004490080517096987    1    1   22   16
 -0.0001635232238021662    1    1   22   17
 0.001364537718817318    1    1   22   18
 0.0006318207912692118    1    1   22   19
 -0.0005095691559990359    1    1   22   20
 -0.0008415950274246525    1    1   22   21
 0.1861851786880028    1    1   22   22
 0.0007841481603441193    2    1    1    1
 0.01501531008285283    2    1    2    1
 -0.01501537649786032    2    1    2    2
 -0.003003160749824706    2    1    3    1
 -0.0002626818748112458    2    1    3    2
 -0.008375619787374604    2    1    3    3
 0.003626903755289669    2    1    4    1
 -0.006604745992114281    2    1    4    2
 -0.006725138756606341    2    1    4    3
 -0.008629827602562893    2    1    4    4
 -0.0004583359144299736    2    1    5    1
 -0.002029173436701812    2    1    5    2
 -0.001053032524290709    2    1    5    3
 -0.004118990268707634    2    1    5    4
 0.001207578915155048    2    1    5    5
 0.0006324116859265629    2    1    6    1
 -0.002087873331137132    2    1    6    2
 -0.003545417260474146    2    1    6    3
 -0.002632120269033322    2    1    6    4
 -0.001389898369200498    2    1    6    5
 -0.001900118766080753    2    1    6    6
 -0.002663514824474246    2    1    7    1
 0.001474473422318926    2    1    7    2
 0.002401427310379612    2    1    7    3
 1.914832311760683e-05    2    1    7    4
 0.005438901840766131    2    1    7    5
 0.001974401837881597    2    1    7    6
 0.002715604919088824    2    1    7    7
 0.001134110251261138    2    1    8    1
 0.00130767294019522    2    1    8    2
 0.0008288370061861763    2    1    8    3
 0.003345476419520896    2    1    8    4
 -0.001207832560325134    2    1    8    5
 -0.0001475832563256932    2    1    8    6
 -0.003196824409899869    2    1    8    7
 -0.002276667588067946    2    1    8    8
 0.000911198149379458    2    1    9    1
 1.245549608933033e-05    2    1    9    2
 -0.001574827819097419    2    1    9    3
 -0.0006432081695886473    2    1    9    4
 -0.000238597896322726    2    1    9    5
 0.001688297360310318    2    1    9    6
 0.001155649149313798    2    1    9    7
 0.0004138645865490149    2    1    9    8
 0.0008500590100349251    2    1    9    9
 0.0004800819195857772    2    1   10    1
 -0.0007777689279708043    2    1   10    2
 0.001019608512454    2    1   10    3
 0.001077989764846703    2    1   10    4
 0.000307719032063618    2    1   10    5
 -0.0003343435620176067    2    1   10    6
 -0.0004549466450903728    2    1   10    7
 -9.989148674442682e-05    2    1   10    8
 -0.001841892924268672    2    1   10    9
 0.001238317629674766    2    1   10   10
 -0.004094885626850355    2    1   11    1
 -0.0006767297502918824    2    1   11    2
 0.001333492226143533    2    1   11    3
 0.0005282182175519994    2    1   11    4
 0.0001953641713105786    2    1   11    5
 -0.000737274589643374    2    1   11    6
 -0.0007306003001892663    2    1   11    7
 -0.0006212595597873337    2    1   11    8
 -0.00145050601255526    2    1   11    9
 0.0008680999784172222    2    1   11   10
 -2.010532866009263e-05    2    1   11   11
 -0.002702815045845355    2    1   12    1
 -0.003170157224715754    2    1   12    2
 -0.005174639899801931    2    1   12    3
 -0.00411269904557182    2    1   12    4
 -0.001736158261777769    2    1   12    5
 0.0002880156950220172    2    1   12    6
 0.001888724331695518    2    1   12    7
 0.001390490863940542    2    1   12    8
 0.003411820331786927    2    1   12    9
 -0.003142680263801799    2    1   12   10
 -0.0003291626328807994    2    1   12   11
 0.0003226566635909579    2    1   12   12
 -0.0007332964331168288    2    1   13    1
 0.0004482242492003322    2    1   13    2
 -0.0004167315814588607    2    1   13    3
 0.0002545362623753552    2    1   13    4
 0.0003246765634183868    2    1   13    5
 -0.0002735494531972339    2    1   13    6
 0.0003917390571737597    2    1   13    7
 -0.000507643076206465    2    1   13    8
 2.763326668011371e-05    2    1   13    9
 5.094157382509774e-05    2    1   13   10
 0.0002400242341840005    2    1   13   11
 0.0001796865555403    2    1   13   12
 -0.0001582188912804874    2    1   13   13
 -0.0001014147631643627    2    1   14    1
 0.0006342623747483124    2    1   14    2
 -0.0002802782874033764    2    1   14    3
 0.0003584294744702742    2    1   14    4
 0.0001652267591848443    2    1   14    5
 -7.570133840067731e-05    2    1   14    6
 -0.0001359729816826749    2    1   14    7
 -7.666470637492539e-05    2    1   14    8
 2.837192470529688e-05    2    1   14    9
 3.153788641318124e-05    2    1   14   10
 -0.0003004875504185395    2    1   14   11
 -6.280305790534092e-05    2    1   14   12
 -0.0005475700268478129    2    1   14   13
 -0.0005538792908281804    2    1   14   14
 4.662010254189815e-05    2    1   15    1
 -0.0001363415950655662    2    1   15    2
 -2.058830065799673e-05    2    1   15    3
 -5.686248607795552e-05    2    1   15    4
 -5.887052609929862e-05    2    1   15    5
 6.355075393887979e-05    2    1   15    6
 9.510571106481589e-05    2    1   15    7
 0.0002382912984988787    2    1   15    8
 0.0002380196684340706    2    1   15    9
 -0.0002036682611296771    2    1   15   10
 -6.160764984038923e-05    2    1   15   11
 0.0002227496381930981    2    1   15   12
 7.504472986855281e-05    2    1   15   13
 -1.793576195857953e-05    2    1   15   14
 -0.0003805865667180238    2    1   15   15
 0.0003560356894403167    2    1   16    1
 0.0001937414279509815    2    1   16    2
 -0.0002569431197469959    2    1   16    3
 0.0005835445397689197    2    1   16    4
 -0.0004567820729013895    2    1   16    5
 8.540944005349692e-05    2    1   16    6
 -0.0005376260954085378    2    1   16    7
 -0.0001789977145156729    2    1   16    8
 0.000317667856890128    2    1   16    9
 -0.0001881676448902372    2    1   16   10
 -0.0003443577362732635    2    1   16   11
 0.0003654861381353269    2    1   16   12
 -0.0002039894111009055    2    1   16   13
 1.246809639855263e-05    2    1   16   14
 0.000123532781069398    2    1   16   15
 -0.0001363980019297292    2    1   16   16
 -0.0005076924151463703    2    1   17    1
 4.318515868826698e-05    2    1   17    2
 0.0002961480678325994    2    1   17    3
 -3.442699252629956e-05    2    1   17    4
 0.000591402217284647    2    1   17    5
 0.0003474022178429967    2    1   17    6
 0.0003217710537754766    2    1   17    7
 -0.0004592078369377279    2    1   17    8
 0.000412354061812697    2    1   17    9
 -0.0002320132030077876    2    1   17   10
 -1.777199065607175e-05    2    1   17   11
 0.0005856747318810198    2    1   17   12
 0.0001308100121721665    2    1   17   13
 -0.0001343246250372383    2    1   17   14
 0.0001295910040548919    2    1   17   15
 -0.0004253624155562002    2    1   17   16
 -7.055238826271649e-05    2    1   17   17
 8.524210564593758e-05    2    1   18    1
 -0.0001260512450419894    2    1   18    2
 7.764513651401916e-05    2    1   18    3
 0.0001596770309831289    2    1   18    4
 -2.918085804759506e-05    2    1   18    5
 -3.060290067547742e-06    2    1   18    6
 4.930419036221782e-05    2    1   18    7
 0.0006187444760962871    2    1   18    8
 0.0001924088936136287    2    1   18    9
 -0.0002547633594274279    2    1   18   10
 -3.274469461750383e-05    2    1   18   11
 -0.0001106373305983079    2    1   18   12
 2.996632729997277e-05    2    1   18   13
 -9.504567695250669e-05    2    1   18   14
 -0.0003569168993965482    2    1   18   15
 0.0002613716770350397    2    1   18   16
 0.0001823361303238186    2    1   18   17
 -0.0007812129544959208    2    1   18   18
 0.0004780636873810659    2    1   19    1
 0.0001561370746950371    2    1   19    2
 -0.0002127193497886543    2    1   19    3
 0.0005524153389933661    2    1   19    4
 3.169866119777576e-05    2    1   19    5
 0.0001349489668095948    2    1   19    6
 -0.0003409509904892199    2    1   19    7
 -0.0003122136261335626    2    1   19    8
 0.0003520382339753441    2    1   19    9
 -0.0001976309894118234    2    1   19   10
 -0.0004881657667869316    2    1   19   11
 0.00061247305364896    2    1   19   12
 -0.000242025920036047    2    1   19   13
 0.0001721522259200812    2    1   19   14
 0.0001699745540237569    2    1   19   15
 -0.0002044606502905441    2    1   19   16
 -0.0004022730161630628    2    1   19   17
 0.0003921834606374284    2    1   19   18
 -0.0004492569648337903    2    1   19   19
 -0.0006661461717937321    2    1   20    1
 -7.741505628442018e-05    2    1   20    2
 0.0006804831418017291    2    1   20    3
 -5.855854835305032e-05    2    1   20    4
 -0.0001813807216695225    2    1   20    5
 0.0003656240344837382    2    1   20    6
 0.0002772323607008558    2    1   20    7
 -0.0003259714890613967    2    1   20    8
 0.000257116605206879    2    1   20    9
 -0.0001994760555183911    2    1   20   10
 0.0002073717190520357    2    1   20   11
 0.0007445766656567765    2    1   20   12
 0.0003423018330816603    2    1   20   13
 -0.0002312091544293999    2    1   20   14
 0.0001496501808191512    2    1   20   15
 -0.0004212315594087272    2    1   20   16
 2.8174532066785e-05    2    1   20   17
 0.000294664846062688    2    1   20   18
 -0.0008751393124859766    2    1   20   19
 0.0001022460060961499    2    1   20   20
 0.000125812863913049    2    1   21    1
 -0.001073223789935194    2    1   21    2
 0.0007421801282812122    2    1   21    3
 -0.0007122835398964586    2    1   21    4
 5.676968182937595e-05    2    1   21    5
 -2.899176725445697e-05    2    1   21    6
 0.00085507231797867    2    1   21    7
 -1.956488051716413e-06    2    1   21    8
 -2.216439929383003e-05    2    1   21    9
 -6.774725098164357e-09    2    1   21   10
 0.0005458981036953581    2    1   21   11
 -8.666979768066023e-05    2    1   21   12
 0.0007107564394450926    2    1   21   13
 0.0006449327878806418    2    1   21   14
 -3.764570513392641e-05    2    1   21   15
 -5.36180549884038e-05    2    1   21   16
 0.0004152614746787755    2    1   21   17
 7.559516149694036e-05    2    1   21   18
 -0.0001678752862191971    2    1   21   19
 0.0005162234822621049    2    1   21   20
 -0.00144697737971004    2    1   21   21
 0.001009041705271032    2    1   22    1
 -0.0007622869218266061    2    1   22    2
 0.0007405428622647783    2    1   22    3
 -0.0005551932601110659    2    1   22    4
 -0.0003369852106368905    2    1   22    5
 0.000430521242547814    2    1   22    6
 -0.0003923734680073529    2    1   22    7
 0.0007658940004302959    2    1   22    8
 -3.213840068035836e-05    2    1   22    9
 -0.0001247306654528911    2    1   22   10
 -0.0003955641013392468    2    1   22   11
 -0.0003062675377815095    2    1   22   12
 0.0003051411103039999    2    1   22   13
 0.0006475506030044246    2    1   22   14
 -9.796082552325466e-05    2    1   22   15
 0.0003644581990099557    2    1   22   16
 -0.0001365693860641345    2    1   22   17
 -0.0001533218886798376    2    1   22   18
 0.0005070790758131216    2    1   22   19
 -0.0005722691955823819    2    1   22   20
 -0.001363728758958551    2    1   22   21
 -0.0006310384319729173    2    1   22   22
 0.2032314237785366    2    2    1    1
 -0.0150153764978603    2    2    2    1
 0.218093498090856    2    2    2    2
 0.001903050242493744    2    2    3    1
 -6.379276608596451e-05    2    2    3    2
 0.1783951920364513    2    2    3    3
 -0.00582059239232637    2    2    4    1
 0.01889386190729382    2    2    4    2
 0.01447372382324873    2    2    4    3
 0.1755380913181839    2    2    4    4
 -0.003018721566572636    2    2    5    1
 0.004965242146046368    2    2    5    2
 0.001334699450996367    2    2    5    3
 0.006502816879144159    2    2    5    4
 0.1685757886991226    2    2    5    5
 0.008722567130987163    2    2    6    1
 0.02409871711864651    2    2    6    2
 0.004703017579676284    2    2    6    3
 0.0006357191501032019    2    2    6    4
 0.004193968698383394    2    2    6    5
 0.16431583560749    2    2    6    6
 0.003385035948300695    2    2    7    1
 0.003209042267805063    2    2    7    2
 -0.0004000217887833267    2    2    7    3
 -0.006281216103829158    2    2    7    4
 -0.001940493015613612    2    2    7    5
 0.0001040495392569796    2    2    7    6
 0.1635758926674319    2    2    7    7
 0.003085854027365323    2    2    8    1
 0.001234798646169818    2    2    8    2
 0.0003960504381860833    2    2    8    3
 -0.006664326487178301    2    2    8    4
 -0.003911886602391143    2    2    8    5
 0.001099020984405127    2    2    8    6
 0.00367437253684396    2    2    8    7
 0.1637126479822472    2    2    8    8
 -0.001760031801809691    2    2    9    1
 -0.0002340174948302677    2    2    9    2
 -0.0006185761943272517    2    2    9    3
 -0.000497377205737722    2    2    9    4
 0.00104014588810773    2    2    9    5
 -0.001254910416264663    2    2    9    6
 -0.0004681704333644384    2    2    9    7
 -0.0006962150032648101    2    2    9    8
 0.1655583128515585    2    2    9    9
 0.002416743309729481    2    2   10    1
 0.01042060250937125    2    2   10    2
 0.005845808990558267    2    2   10    3
 -0.008230438777616247    2    2   10    4
 0.001736351029877642    2    2   10    5
 -0.01603427376253494    2    2   10    6
 -0.004660325902125005    2    2   10    7
 -0.00376208773207757    2    2   10    8
 0.001133575450944908    2    2   10    9
 0.142545251222766    2    2   10   10
 0.001370470496735209    2    2   11    1
 0.0001654599471620579    2    2   11    2
 8.034712000378566e-05    2    2   11    3
 -0.001707337232571709    2    2   11    4
 8.682748314080043e-06    2    2   11    5
 -0.00202290585677411    2    2   11    6
 0.0009318741218238458    2    2   11    7
 -0.001858294749529478    2    2   11    8
 0.00469275943579067    2    2   11    9
 0.003560408864287044    2    2   11   10
 0.161052168773466    2    2   11   11
 -0.0008864876503615841    2    2   12    1
 0.006231155763407602    2    2   12    2
 0.003528687378520837    2    2   12    3
 0.004186828167289145    2    2   12    4
 0.0007656258482605884    2    2   12    5
 0.001986617518817689    2    2   12    6
 0.0004323990704213643    2    2   12    7
 -0.005035927726165883    2    2   12    8
 0.001068056609754244    2    2   12    9
 0.001122421364269731    2    2   12   10
 0.0001586788539585466    2    2   12   11
 0.1620636270689606    2    2   12   12
 0.0006119267972283488    2    2   13    1
 -0.001015969233913508    2    2   13    2
 0.0005605778610463548    2    2   13    3
 -0.0003287142902225932    2    2   13    4
 -0.0002606742242755442    2    2   13    5
 -0.0001853885930122988    2    2   13    6
 0.0003075287246475327    2    2   13    7
 0.0006043868929756464    2    2   13    8
 -8.841660900950641e-06    2    2   13    9
 -0.0001701314701107639    2    2   13   10
 6.441252119111401e-05    2    2   13   11
 -0.0001174530251478015    2    2   13   12
 0.1793693148511767    2    2   13   13
 0.0009553554028755041    2    2   14    1
 -0.001204843557449063    2    2   14    2
 0.000828619195020043    2    2   14    3
 -0.0005962328843254741    2    2   14    4
 -0.001378004798720119    2    2   14    5
 8.630619964341387e-05    2    2   14    6
 0.0001168561152611168    2    2   14    7
 0.0001468873246197254    2    2   14    8
 0.0004032518742773647    2    2   14    9
 -1.690928857528162e-05    2    2   14   10
 7.767136117485064e-05    2    2   14   11
 -0.0003446226891152533    2    2   14   12
 0.0005405964066185197    2    2   14   13
 0.1800521199333763    2    2   14   14
 -0.0002243701818510485    2    2   15    1
 -2.192137863964656e-05    2    2   15    2
 -0.0001838455270078286    2    2   15    3
 0.0003424224153854646    2    2   15    4
 -2.4746564193893e-06    2    2   15    5
 -0.0003989270630616894    2    2   15    6
 -1.395012582664867e-06    2    2   15    7
 -0.0002695103117981321    2    2   15    8
 -3.979038031721423e-05    2    2   15    9
 0.002636495907490138    2    2   15   10
 -0.0003245174801713009    2    2   15   11
 -0.0001213400515610507    2    2   15   12
 -0.0005210472774231481    2    2   15   13
 -1.37015108374718e-05    2    2   15   14
 0.1797300583601331    2    2   15   15
 0.0002110052271589032    2    2   16    1
 -0.0004173448889534585    2    2   16    2
 0.0003661084297331527    2    2   16    3
 -0.0007500418036800896    2    2   16    4
 -0.0003344381727800594    2    2   16    5
 0.0001103818188302208    2    2   16    6
 0.00100694136593433    2    2   16    7
 -0.001569108336510459    2    2   16    8
 0.0004565391957516506    2    2   16    9
 3.862027031467329e-05    2    2   16   10
 -0.0005893280743158808    2    2   16   11
 -0.00231921036411046    2    2   16   12
 0.0002047538136411834    2    2   16   13
 0.0001076270499375597    2    2   16   14
 -0.0001771449463182788    2    2   16   15
 0.1786366550189857    2    2   16   16
 -6.784435671321665e-06    2    2   17    1
 -0.0005749282841975141    2    2   17    2
 -0.0002126658978852023    2    2   17    3
 -0.00118276300554556    2    2   17    4
 -0.0005714745142268089    2    2   17    5
 0.001020191005623027    2    2   17    6
 -0.001843354882015074    2    2   17    7
 -8.685421817614495e-05    2    2   17    8
 -0.0004576910550496758    2    2   17    9
 -0.0002689766125233478    2    2   17   10
 0.001656080337301243    2    2   17   11
 -0.00127589431456092    2    2   17   12
 0.0001740279078439906    2    2   17   13
 0.0001271455289286208    2    2   17   14
 0.0001558573570685361    2    2   17   15
 0.0004282714386384958    2    2   17   16
 0.1791389521971068    2    2   17   17
 -0.0002638148463524572    2    2   18    1
 -0.0002007812326265105    2    2   18    2
 -0.0001462916175318247    2    2   18    3
 0.0004805912888129608    2    2   18    4
 -0.0001584967800162737    2    2   18    5
 -0.0008856624529421502    2    2   18    6
 0.0002042893727985705    2    2   18    7
 -0.0005546960654994786    2    2   18    8
 3.62190215036864e-05    2    2   18    9
 0.002991651721347659    2    2   18   10
 4.498801705073049e-05    2    2   18   11
 -4.29850558102633e-05    2    2   18   12
 -0.0006752233867189386    2    2   18   13
 9.308519723528975e-07    2    2   18   14
 -0.0004413877348857077    2    2   18   15
 -0.0002768020341318059    2    2   18   16
 0.000286910691783499    2    2   18   17
 0.1793657058976154    2    2   18   18
 0.0002985779699228293    2    2   19    1
 -0.0004797737685859569    2    2   19    2
 -0.0001774548908920515    2    2   19    3
 -0.000820459020616027    2    2   19    4
 0.0003329197855708696    2    2   19    5
 -2.994384825828725e-05    2    2   19    6
 0.0006296023831493393    2    2   19    7
 -0.0007076287184733656    2    2   19    8
 0.0004564395829975832    2    2   19    9
 8.283279618739335e-05    2    2   19   10
 -0.0002226241366214238    2    2   19   11
 -0.002386882118717448    2    2   19   12
 0.0002881882847868209    2    2   19   13
 0.0002920655304302582    2    2   19   14
 -0.0001836722426726161    2    2   19   15
 -0.001310273264337315    2    2   19   16
 0.0003943099765318957    2    2   19   17
 -0.000352437629538041    2    2   19   18
 0.1776012351967813    2    2   19   19
 -0.0001829234580154631    2    2   20    1