 &FCI NORB=  10,NELEC= 7,MS2=3,
  ORBSYM=1,1,1,1,1,1,1,1,1,1,
  ISYM=1,
 &END
 0.9458191045811217    1    1    1    1
 0.0002527851521763734    1    1    2    1
 0.8642058928889529    1    1    2    2
 2.157725841083819e-05    1    1    3    1
 0.0003822213583588055    1    1    3    2
 0.902343406251757    1    1    3    3
 -1.322238712075301e-05    1    1    4    1
 -0.0009802547307241265    1    1    4    2
 0.00461071355776805    1    1    4    3
 0.8758218108615223    1    1    4    4
 -0.001073026822934114    1    1    5    1
 0.0008433342403226735    1    1    5    2
 -0.0102550181941288    1    1    5    3
 -0.0009942940954940098    1    1    5    4
 0.8905828103961881    1    1    5    5
 -0.1096765727691859    1    1    6    1
 0.1667126627023489    1    1    6    2
 -0.04838515254381597    1    1    6    3
 0.1107652046009295    1    1    6    4
 -0.06799568519526947    1    1    6    5
 0.7299702654661436    1    1    6    6
 0.1140276187996913    1    1    7    1
 0.1032616329356217    1    1    7    2
 -0.1063076351613294    1    1    7    3
 -0.1468106976492024    1    1    7    4
 -0.06381824751868941    1    1    7    5
 -0.01126661988193845    1    1    7    6
 0.7372893346451307    1    1    7    7
 -0.07276070404403842    1    1    8    1
 -0.1370227062566509    1    1    8    2
 -0.1509908739623375    1    1    8    3
 0.01120469366697057    1    1    8    4
 -0.1120353844439009    1    1    8    5
 0.01111702947680286    1    1    8    6
 0.002206004716048841    1    1    8    7
 0.7302092631771533    1    1    8    8
 -0.2049906668679521    1    1    9    1
 0.01788941952291119    1    1    9    2
 0.01032669668347452    1    1    9    3
 -0.1403381162724653    1    1    9    4
 0.05123205156061551    1    1    9    5
 0.006873499259898886    1    1    9    6
 -0.01008113300756158    1    1    9    7
 0.007272403477046501    1    1    9    8
 0.7574795086671776    1    1    9    9
 -0.01293869255098769    1    1   10    1
 -0.0109494058803126    1    1   10    2
 0.1626758580739371    1    1   10    3
 -0.03561949125726235    1    1   10    4
 -0.1810528112658857    1    1   10    5
 0.004544655478781265    1    1   10    6
 0.001447540482459754    1    1   10    7
 0.003342034588810918    1    1   10    8
 -0.002557221846016519    1    1   10    9
 0.7484487968919168    1    1   10   10
 0.0002527851521763478    2    1    1    1
 0.04153160928939276    2    1    2    1
 0.0001763557078789665    2    1    2    2
 -0.0001303902506745113    2    1    3    1
 -0.0001095938181092714    2    1    3    2
 -0.003360055805894548    2    1    3    3
 0.0005555210844982063    2    1    4    1
 0.001449886141776197    2    1    4    2
 0.002663068960308591    2    1    4    3
 -0.01419586248590178    2    1    4    4
 -0.0004631850259690428    2    1    5    1
 0.000258215575854206    2    1    5    2
 0.007469774972512225    2    1    5    3
 0.005148657380414303    2    1    5    4
 0.01797729397280917    2    1    5    5
 0.00991961952805053    2    1    6    1
 -0.00506275271140911    2    1    6    2
 4.823733601123265e-05    2    1    6    3
 -0.002095470652663162    2    1    6    4
 -0.001114597511077532    2    1    6    5
 -0.01807935837580584    2    1    6    6
 0.006073711868955593    2    1    7    1
 0.005551021035932394    2    1    7    2
 -0.0006703738086574307    2    1    7    3
 0.00218030805401689    2    1    7    4
 -0.003409493974584706    2    1    7    5
 0.008132199210676419    2    1    7    6
 0.00967285532818399    2    1    7    7
 -0.007959402770612143    2    1    8    1
 -0.003734849836340198    2    1    8    2
 -0.0002529419753010066    2    1    8    3
 -0.001904181222737407    2    1    8    4
 -0.003903011305582365    2    1    8    5
 0.002260254930098456    2    1    8    6
 -0.00429164924001895    2    1    8    7
 0.01341684227733098    2    1    8    8
 0.001147375777344658    2    1    9    1
 -0.01006712401803502    2    1    9    2
 5.257155408714096e-05    2    1    9    3
 0.002864500576304062    2    1    9    4
 0.0004716711267886919    2    1    9    5
 -0.01333843318392017    2    1    9    6
 -0.0134958885718657    2    1    9    7
 0.01225560338951182    2    1    9    8
 -0.006512138436082486    2    1    9    9
 -0.0006162660098432826    2    1   10    1
 -0.0007167607961900898    2    1   10    2
 -0.002282392515514914    2    1   10    3
 8.265141137050199e-05    2    1   10    4
 -0.002573521432071267    2    1   10    5
 0.002433774247407744    2    1   10    6
 0.003252743906212819    2    1   10    7
 0.008237751263531339    2    1   10    8
 -0.001083735110695885    2    1   10    9
 0.001629984874817443    2    1   10   10
 0.8642058928889526    2    2    1    1
 0.0001763557078790833    2    2    2    1
 0.9490300605037955    2    2    2    2
 0.0001829260300860814    2    2    3    1
 2.30217506063189e-05    2    2    3    2
 0.8724812039372766    2    2    3    3
 -0.003031070155374593    2    2    4    1
 4.461668555768188e-05    2    2    4    2
 -0.006573944608924291    2    2    4    3
 0.9060129462473712    2    2    4    4
 -0.001690312768362061    2    2    5    1
 -0.0001243652974852468    2    2    5    2
 0.009172327201434068    2    2    5    3
 0.0002052706399521897    2    2    5    4
 0.8953772195293778    2    2    5    5
 -0.09780025646607855    2    2    6    1
 0.1870711951742525    2    2    6    2
 -0.04946380803226603    2    2    6    3
 0.1163787366719395    2    2    6    4
 -0.06958220571034807    2    2    6    5
 0.7564043060212314    2    2    6    6
 0.1018911379681681    2    2    7    1
 0.1160063330182427    2    2    7    2
 -0.1007303998721304    2    2    7    3
 -0.1505720823684289    2    2    7    4
 -0.06751067224978992    2    2    7    5
 0.008301973124534808    2    2    7    6
 0.743703077964737    2    2    7    7
 -0.0648602580741737    2    2    8    1
 -0.1537902168760417    2    2    8    2
 -0.1469457756158921    2    2    8    3
 0.01369981360520542    2    2    8    4
 -0.1160984756704195    2    2    8    5
 -0.01129835442950769    2    2    8    6
 -0.007768744987605123    2    2    8    7
 0.7450051425839138    2    2    8    8
 -0.1821978048310532    2    2    9    1
 0.01916542013443004    2    2    9    2
 0.01292635208560485    2    2    9    3
 -0.1442654418513152    2    2    9    4
 0.05151039234632011    2    2    9    5
 -0.01481605218689797    2    2    9    6
 0.01367556366920137    2    2    9    7
 -0.01175027940053608    2    2    9    8
 0.7331328979679173    2    2    9    9
 -0.01130866756915665    2    2   10    1
 -0.01227343459431087    2    2   10    2
 0.1512377459171534    2    2   10    3
 -0.03970963095668217    2    2   10    4
 -0.1769890988439788    2    2   10    5
 2.571619124447164e-05    2    2   10    6
 0.01499599891563651    2    2   10    7
 0.01365334628209855    2    2   10    8
 0.0003914572981090973    2    2   10    9
 0.731834406019411    2    2   10   10
 2.157725841086924e-05    3    1    1    1
 -0.0001303902506745267    3    1    2    1
 0.0001829260300859108    3    1    2    2
 0.02370466639805513    3    1    3    1
 0.001591534624732588    3    1    3    2
 -4.067086181017495e-05    3    1    3    3
 -0.002981657876118021    3    1    4    1
 -0.002004706079980124    3    1    4    2
 -0.006559884966330609    3    1    4    3
 -0.002732186925357853    3    1    4    4
 0.005362492017961249    3    1    5    1
 -0.004730172366653341    3    1    5    2
 -0.002283675168956254    3    1    5    3
 -0.0002036730416171508    3    1    5    4
 0.002558059735388363    3    1    5    5
 -0.002465000512981393    3    1    6    1
 7.834093936144319e-05    3    1    6    2
 -0.003701789878752734    3    1    6    3
 2.687080001586377e-05    3    1    6    4
 -0.002184842843680706    3    1    6    5
 0.004863259313982931    3    1    6    6
 -0.003385368374430138    3    1    7    1
 0.0005584405741095915    3    1    7    2
 0.005347024260017826    3    1    7    3
 0.0008794370420817108    3    1    7    4
 0.0002980768811936665    3    1    7    5
 0.001887372620238508    3    1    7    6
 -0.007443090722649777    3    1    7    7
 -0.005576248532103545    3    1    8    1
 0.0003757671316153928    3    1    8    2
 -0.002422891382862789    3    1    8    3
 0.002138770332616737    3    1    8    4
 0.0006055492286733142    3    1    8    5
 0.007465850728382033    3    1    8    6
 -0.005306321525226557    3    1    8    7
 0.004976333862373078    3    1    8    8
 0.001276987823227124    3    1    9    1
 0.0001570746522313498    3    1    9    2
 -0.005245428301984829    3    1    9    3
 0.001214280627458936    3    1    9    4
 -0.001417332385534948    3    1    9    5
 0.00283813888517697    3    1    9    6
 0.004429728546391066    3    1    9    7
 0.006187728764250842    3    1    9    8
 -0.004636660971851753    3    1    9    9
 0.004111273085786844    3    1   10    1
 0.001615907381771404    3    1   10    2
 0.0003461993206393948    3    1   10    3
 -0.001120230983360243    3    1   10    4
 -0.001034784957455754    3    1   10    5
 -0.001362821634981669    3    1   10    6
 0.006148294290190955    3    1   10    7
 -0.003456773270867377    3    1   10    8
 -0.00434577473774303    3    1   10    9
 0.002477402406206341    3    1   10   10
 0.0003822213583588979    3    2    1    1
 -0.0001095938181092896    3    2    2    1
 2.302175060606911e-05    3    2    2    2
 0.001591534624732575    3    2    3    1
 0.03947496753417325    3    2    3    2
 -1.246695580763186e-05    3    2    3    3
 -0.0008012984388749857    3    2    4    1
 0.002611498265212499    3    2    4    2
 -0.00183492968396786    3    2    4    3
 -0.00464064246659191    3    2    4    4
 -0.002624254112719081    3    2    5    1
 -0.004340273329133239    3    2    5    2
 0.002530078841808239    3    2    5    3
 -0.01734274770605761    3    2    5    4
 0.004410156018862235    3    2    5    5
 -1.028095636823216e-06    3    2    6    1
 -0.001918638488650773    3    2    6    2
 0.008862999346960712    3    2    6    3
 0.001593947988745211    3    2    6    4
 -0.003449214897765123    3    2    6    5
 -0.001221508043181829    3    2    6    6
 0.0001481508158612491    3    2    7    1
 -0.005393872650008917    3    2    7    2
 0.006315017491461122    3    2    7    3
 0.002711472166045774    3    2    7    4
 0.001527727039873404    3    2    7    5
 -0.008715863241440778    3    2    7    6
 -0.01517437027132701    3    2    7    7
 6.22084475309127e-05    3    2    8    1
 -0.007021219496817405    3    2    8    2
 -0.008300160300791079    3    2    8    3
 0.002268632831386366    3    2    8    4
 -0.0002999257490261417    3    2    8    5
 -0.003908115051083702    3    2    8    6
 -0.00254910531530059    3    2    8    7
 0.01895830774915207    3    2    8    8
 -2.359889900840288e-05    3    2    9    1
 2.463353512094179e-05    3    2    9    2
 0.0008797597461076375    3    2    9    3
 2.602750166975427e-05    3    2    9    4
 0.004036382578195765    3    2    9    5
 -0.003664253700200278    3    2    9    6
 -0.003866915662481801    3    2    9    7
 -0.005653758820729117    3    2    9    8
 0.002448652834184748    3    2    9    9
 0.001216208916907061    3    2   10    1
 0.008352058678735459    3    2   10    2
 -0.001298602539383181    3    2   10    3
 0.003643315432602613    3    2   10    4
 0.0005143106634884464    3    2   10    5
 0.01742437383311729    3    2   10    6
 0.004206689080713049    3    2   10    7
 -0.01021943643637562    3    2   10    8
 -0.005562828985063923    3    2   10    9
 -0.004575647230834387    3    2   10   10
 0.9023434062517562    3    3    1    1
 -0.003360055805894433    3    3    2    1
 0.8724812039372768    3    3    2    2
 -4.067086180990523e-05    3    3    3    1
 -1.246695580739154e-05    3    3    3    2
 0.9539617768849733    3    3    3    3
 0.01317930296930637    3    3    4    1
 0.003665148609127877    3    3    4    2
 -0.001321753486852354    3    3    4    3
 0.8851044674131542    3    3    4    4
 0.00339806469499818    3    3    5    1
 -0.005302503423996623    3    3    5    2
 0.0004276073577294454    3    3    5    3
 0.0005158661485508495    3    3    5    4
 0.8843410057933558    3    3    5    5
 -0.1033299805262391    3    3    6    1
 0.1711189934604663    3    3    6    2
 -0.05391100209966285    3    3    6    3
 0.1122509514997553    3    3    6    4
 -0.07052008656658361    3    3    6    5
 0.7342926359465759    3    3    6    6
 0.1048162731680305    3    3    7    1
 0.1040838619435795    3    3    7    2
 -0.1139438153636806    3    3    7    3
 -0.1456833485093453    3    3    7    4
 -0.06581059495779006    3    3    7    5
 0.001897662992032754    3    3    7    6
 0.7347203013903839    3    3    7    7
 -0.06888652563664378    3    3    8    1
 -0.1378044763274397    3    3    8    2
 -0.1638383546268206    3    3    8    3
 0.0102819533222652    3    3    8    4
 -0.1132104772366734    3    3    8    5
 0.01179949018157739    3    3    8    6
 0.01695322023857236    3    3    8    7
 0.7432586279560072    3    3    8    8
 -0.1965370951179142    3    3    9    1
 0.01741307337513922    3    3    9    2
 0.01277228799312319    3    3    9    3
 -0.1460278002914703    3    3    9    4
 0.0495155586750294    3    3    9    5
 -0.004913751740370008    3    3    9    6
 0.002132642306484036    3    3    9    7
 0.0006279567441604308    3    3    9    8
 0.7512626397302032    3    3    9    9
 -0.01383319129587966    3    3   10    1
 -0.01017186454898609    3    3   10    2
 0.1725478415096931    3    3   10    3
 -0.03830936833359461    3    3   10    4
 -0.1780278355378238    3    3   10    5
 -0.0008970088612039783    3    3   10    6
 -0.00456697738862744    3    3   10    7
 -0.01163423676898044    3    3   10    8
 0.005174079122607742    3    3   10    9
 0.7538844956588552    3    3   10   10
 -1.3222387120774e-05    4    1    1    1
 0.0005555210844982092    4    1    2    1
 -0.003031070155374549    4    1    2    2
 -0.002981657876117981    4    1    3    1
 -0.000801298438875032    4    1    3    2
 0.0131793029693062    4    1    3    3
 0.03822506586492728    4    1    4    1
 0.007195561669958396    4    1    4    2
 0.001374937781833485    4    1    4    3
 1.120515105489096e-05    4    1    4    4
 0.0004603840880965742    4    1    5    1
 -0.002882795373897036    4    1    5    2
 0.01213137951352437    4    1    5    3
 0.00182137464192386    4    1    5    4
 -0.01036530385616864    4    1    5    5
 0.00556569195094329    4    1    6    1
 0.001129334773062087    4    1    6    2
 -0.001482627088953116    4    1    6    3
 -0.003883656133781548    4    1    6    4
 -0.0006190556413045934    4    1    6    5
 -0.007616572678939048    4    1    6    6
 -0.006745067226390167    4    1    7    1
 -0.001399404827312246    4    1    7    2
 -0.003825390939825308    4    1    7    3
 0.006468113881265624    4    1    7    4
 -0.00174165644108017    4    1    7    5
 0.01239269762416183    4    1    7    6
 -0.01074332231378418    4    1    7    7
 0.0009229057112222704    4    1    8    1
 0.001142422811403756    4    1    8    2
 -0.004143979970906633    4    1    8    3
 -0.005850705729507921    4    1    8    4
 -0.0006374847630571167    4    1    8    5
 -0.002395635347465139    4    1    8    6
 0.01239819140684046    4    1    8    7
 0.003140475145404168    4    1    8    8
 -0.007316386664122414    4    1    9    1
 -0.001765477364523322    4    1    9    2
 0.00149355903490308    4    1    9    3
 -0.01104228678040403    4    1    9    4
 -0.0009367103447900111    4    1    9    5
 -0.005141746441364762    4    1    9    6
 0.002770986322877709    4    1    9    7
 0.004388624378666288    4    1    9    8
 0.02232048936332657    4    1    9    9
 -0.002544831099111744    4    1   10    1
 0.0001254492636480846    4    1   10    2
 0.0005173801843747274    4    1   10    3
 -0.001046121522675892    4    1   10    4
 0.004802478147109864    4    1   10    5
 -0.001247373603128525    4    1   10    6
 -0.003858233275791962    4    1   10    7
 -0.003680573700704934    4    1   10    8
 0.00781737393872509    4    1   10    9
 -0.008139732325018302    4    1   10   10
 -0.000980254730724105    4    2    1    1
 0.00144988614177619    4    2    2    1
 4.461668555777784e-05    4    2    2    2
 -0.002004706079980101    4    2    3    1
 0.002611498265212467    4    2    3    2
 0.003665148609127819    4    2    3    3
 0.007195561669958418    4    2    4    1
 0.02398498152204473    4    2    4    2
 0.002311829288736957    4    2    4    3
 0.0001048710008109581    4    2    4    4
 -0.002224733469473243    4    2    5    1
 -0.0001560626517887641    4    2    5    2
 0.006437734980373823    4    2    5    3
 -0.002115932582323276    4    2    5    4
 -0.002562718516333668    4    2    5    5
 0.001997258223391553    4    2    6    1
 0.003583934518287107    4    2    6    2
 0.0003355612424554951    4    2    6    3
 0.00560815359833163    4    2    6    4
 -0.0002206769879586222    4    2    6    5
 0.006812173046100682    4    2    6    6
 -0.0008286778226161188    4    2    7    1
 -0.004812474093593731    4    2    7    2
 -0.001650533931555086    4    2    7    3
 0.004796305101499507    4    2    7    4
 -0.000824160739527608    4    2    7    5
 -0.001013556302387906    4    2    7    6
 -0.008654208015405162    4    2    7    7
 0.0006067130848933816    4    2    8    1
 -0.0003718739204997103    4    2    8    2
 -0.002149768443282453    4    2    8    3
 -0.006398493012550841    4    2    8    4
 -0.0009360651081577966    4    2    8    5
 -0.004541687063169902    4    2    8    6
 0.00884764976506547    4    2    8    7
 0.002679341815905158    4    2    8    8
 -0.001273845701385888    4    2    9    1
 -0.004885142139388112    4    2    9    2
 0.0006558863835236195    4    2    9    3
 -0.001774758688715386    4    2    9    4
 0.0009998373718093936    4    2    9    5
 -0.007932271849471319    4    2    9    6
 -0.004735953160403164    4    2    9    7
 0.004477330890909461    4    2    9    8
 0.00372206549873869    4    2    9    9
 -0.0002124553387676905    4    2   10    1
 -0.0008259632057539724    4    2   10    2
 -0.0007902126909360381    4    2   10    3
 0.0003677729427915281    4    2   10    4
 0.002313048810683967    4    2   10    5
 -0.000777157391958162    4    2   10    6
 -0.001921155593820084    4    2   10    7
 -9.577275283237603e-05    4    2   10    8
 0.0004812289858855549    4    2   10    9
 -0.004796769963376912    4    2   10   10
 0.004610713557767926    4    3    1    1
 0.002663068960308579    4    3    2    1
 -0.006573944608924336    4    3    2    2
 -0.006559884966330608    4    3    3    1
 -0.001834929683967904    4    3    3    2
 -0.001321753486852313    4    3    3    3
 0.001374937781833536    4    3    4    1
 0.002311829288736963    4    3    4    2
 0.03588401404890858    4    3    4    3
 -0.00131181216126413    4    3    4    4
 -0.01180571931200368    4    3    5    1
 0.0109340513739165    4    3    5    2
 -0.000307591691552581    4    3    5    3
 -0.0009554338078193464    4    3    5    4
 -0.001655925151064984    4    3    5    5
 0.001739068447579509    4    3    6    1
 -0.002688051445076784    4    3    6    2
 0.006022226749050079    4    3    6    3
 -0.002448893901328693    4    3    6    4
 0.00481009471549875    4    3    6    5
 -0.01202772418357173    4    3    6    6
 0.00270879206044565    4    3    7    1
 -0.002088566353332746    4    3    7    2
 -0.008059623281618951    4    3    7    3
 -0.004572719606952237    4    3    7    4
 0.0003505687550539367    4    3    7    5
 -0.005129232622491839    4    3    7    6
 0.01294671240342082    4    3    7    7
 0.002100913722978069    4    3    8    1
 -0.0001627362322228589    4    3    8    2
 0.002108058076040415    4    3    8    3
 -0.008575907677494577    4    3    8    4
 -0.0007077798099105478    4    3    8    5
 -0.009957897784802348    4    3    8    6
 0.00986605180784815    4    3    8    7
 -0.003589295815036894    4    3    8    8
 -0.0020408606044039    4    3    9    1
 -0.0005644568562541079    4    3    9    2
 -0.004906947813401672    4    3    9    3
 0.0006449915295556512    4    3    9    4
 0.003578613017287119    4    3    9    5
 0.001801459028558104    4    3    9    6
 -0.0004542605397546308    4    3    9    7
 0.005451654760212628    4    3    9    8
 0.00408539138345546    4    3    9    9
 0.001134329581703108    4    3   10    1
 -0.002935202060100437    4    3   10    2
 -0.001978654674373692    4    3   10    3
 0.008678947099127018    4    3   10    4
 0.0005828771669920334    4    3   10    5
 0.002320243342145797    4    3   10    6
 -0.009902749453839371    4    3   10    7
 0.005761112241676863    4    3   10    8
 -0.01221386403004165    4    3   10    9
 -0.005579926682867878    4    3   10   10
 0.8758218108615223    4    4    1    1
 -0.01419586248590184    4    4    2    1
 0.9060129462473712    4    4    2    2
 -0.002732186925357649    4    4    3    1
 -0.004640642466591973    4    4    3    2
 0.8851044674131554    4    4    3    3
 1.12051510549144e-05    4    4    4    1
 0.0001048710008111371    4    4    4    2
 -0.001311812161263826    4    4    4    3
 0.959956520994895    4    4    4    4
 -0.004739568245910198    4    4    5    1
 0.004075382560110724    4    4    5    2
 0.002485550724297141    4    4    5    3
 -9.078711161301875e-05    4    4    5    4
 0.8847634045968761    4    4    5    5
 -0.1044051646349624    4    4    6    1
 0.1823444218365303    4    4    6    2
 -0.05090707902428627    4    4    6    3
 0.1268294990189629    4    4    6    4
 -0.06806634277540143    4    4    6    5
 0.754297189612344    4    4    6    6
 0.1037566860252956    4    4    7    1
 0.1097634446662575    4    4    7    2
 -0.1066278302144606    4    4    7    3
 -0.1658868927960554    4    4    7    4
 -0.06674530787050967    4    4    7    5
 -0.01236617895708259    4    4    7    6
 0.7513123414284539    4    4    7    7
 -0.06330589278896004    4    4    8    1
 -0.1465862825963678    4    4    8    2
 -0.1507856080872374    4    4    8    3
 0.0136033662551319    4    4    8    4
 -0.1161645780359124    4    4    8    5
 -0.002772059567817364    4    4    8    6
 0.001785085447059064    4    4    8    7
 0.7293679531030305    4    4    8    8
 -0.1910665629397632    4    4    9    1
 0.02221161339829065    4    4    9    2
 0.01275669616168388    4    4    9    3
 -0.1595358646912152    4    4    9    4
 0.05295498116492395    4    4    9    5
 -0.01716207893554915    4    4    9    6
 0.0273489148714636    4    4    9    7
 -0.0133042782756095    4    4    9    8
 0.7527070594436953    4    4    9    9
 -0.01164600111316256    4    4   10    1
 -0.01352917628008399    4    4   10    2
 0.1592221616322516    4    4   10    3
 -0.04221899091205807    4    4   10    4
 -0.1799715223358592    4    4   10    5
 -0.005949163162707889    4    4   10    6
 0.01147693999753446    4    4   10    7
 0.008361482017409917    4    4   10    8
 0.003223499574502625    4    4   10    9
 0.7347640711387474    4    4   10   10
 -0.001073026822934145    5    1    1    1
 -0.0004631850259690214    5    1    2    1
 -0.001690312768362217    5    1    2    2
 0.00536249201796128    5    1    3    1
 -0.002624254112718956    5    1    3    2
 0.003398064694998008    5    1    3    3
 0.0004603840880964667    5    1    4    1
 -0.00222473346947328    5    1    4    2
 -0.0118057193120037    5    1    4    3
 -0.004739568245909954    5    1    4    4
 0.03162507478209969    5    1    5    1
 -0.008935190672358342    5    1    5    2
 -0.001277144319755803    5    1    5    3
 0.005169895854562954    5    1    5    4
 -0.001094033530325739    5    1    5    5
 -0.003029964171732258    5    1    6    1
 0.0003361470180179005    5    1    6    2
 -0.00331562652382081    5    1    6    3
 -0.001057209868563727    5    1    6    4
 -0.006202163680525311    5    1    6    5
 0.006490980417125321    5    1    6    6
 -0.003738829574904831    5    1    7    1
 0.001422997924580775    5    1    7    2
 0.002261780775864112    5    1    7    3
 0.002061605502968139    5    1    7    4
 0.002863172091327999    5    1    7    5
 0.00449130412241336    5    1    7    6
 -0.008195355403052227    5    1    7    7
 -0.00555068098499443    5    1    8    1
 0.002387963783609165    5    1    8    2
 -0.0006501286798818815    5    1    8    3
 0.002166130268317587    5    1    8    4
 -0.0008431199519967827    5    1    8    5
 0.01026431399741633    5    1    8    6
 -0.004414150513362243    5    1    8    7
 0.002332648501531238    5    1    8    8
 0.002360325944795493    5    1    9    1
 -0.0001290451202199893    5    1    9    2
 0.0005284695931509777    5    1    9    3
 0.0008834057214552237    5    1    9    4
 -0.01033000096467827    5    1    9    5
 0.0038217591183757    5    1    9    6
 0.005130325420323852    5    1    9    7
 0.006783569854241035    5    1    9    8
 -0.009131383810260248    5    1    9    9
 -0.006205566008836845    5    1   10    1
 0.001669163729832357    5    1   10    2
 0.001599829303281272    5    1   10    3
 -0.003735378222884625    5    1   10    4
 -0.000720331058557555    5    1   10    5
 0.003983063487087614    5    1   10    6
 -0.0004788873042633164    5    1   10    7
 -0.0003248385620698407    5    1   10    8
 0.0148049788482661    5    1   10    9
 0.004755093258227128    5    1   10   10
 0.0008433342403226594    5    2    1    1
 0.0002582155758542378    5    2    2    1
 -0.0001243652974852421    5    2    2    2
 -0.00473017236665332    5    2    3    1
 -0.004340273329133271    5    2    3    2
 -0.005302503423996224    5    2    3    3
 -0.002882795373896998    5    2    4    1
 -0.000156062651788755    5    2    4    2
 0.01093405137391653    5    2    4    3
 0.004075382560110349    5    2    4    4
 -0.008935190672358264    5    2    5    1
 0.02993313453071993    5    2    5    2
 -0.002167454968938384    5    2    5    3
 0.001299379456620609    5    2    5    4
 -0.0001720636306442243    5    2    5    5
 0.0007040362838138856    5    2    6    1
 -0.002743073439621159    5    2    6    2
 0.002030326352810159    5    2    6    3
 0.0001094535005158547    5    2    6    4
 0.009799589357777765    5    2    6    5
 -0.009604501328219444    5    2    6    6
 0.002150532360629522    5    2    7    1
 -0.002291418768290099    5    2    7    2
 -0.002475706693665455    5    2    7    3
 -0.00300241404220749    5    2    7    4
 0.003869516840691278    5    2    7    5
 -0.00792298093531375    5    2    7    6
 0.004870563932231453    5    2    7    7
 0.002237087203140904    5    2    8    1
 -0.003792262450497816    5    2    8    2
 0.002919093224651196    5    2    8    3
 -0.002244577459583028    5    2    8    4
 -0.005093756944429186    5    2    8    5
 -0.007667876940979253    5    2    8    6
 0.001176020318444446    5    2    8    7
 0.002871929049887701    5    2    8    8
 -0.000219471653805558    5    2    9    1
 0.001895747221132382    5    2    9    2
 -0.0009941170515351064    5    2    9    3
 0.0004229687956536175    5    2    9    4
 0.003213036244462384    5    2    9    5
 0.002219109915303216    5    2    9    6
 0.0008636383992416603    5    2    9    7
 -0.002865284310272467    5    2    9    8
 0.001697467467344691    5    2    9    9
 0.001143620091984915    5    2   10    1
 -0.007727458227760481    5    2   10    2
 -0.001109765725425677    5    2   10    3
 0.002298464676933311    5    2   10    4
 -0.0007555114395665726    5    2   10    5
 -0.01007433952553722    5    2   10    6
 -0.006827258316418739    5    2   10    7
 0.01096353414745214    5    2   10    8
 -0.006111411805437045    5    2   10    9
 -0.0001563848142669116    5    2   10   10
 -0.01025501819412856    5    3    1    1
 0.007469774972512223    5    3    2    1
 0.009172327201434105    5    3    2    2
 -0.002283675168956241    5    3    3    1
 0.002530078841808221    5    3    3    2
 0.0004276073577294919    5    3    3    3
 0.01213137951352442    5    3    4    1
 0.006437734980373837    5    3    4    2
 -0.0003075916915525463    5    3    4    3
 0.002485550724297138    5    3    4    4
 -0.001277144319755823    5    3    5    1
 -0.002167454968938366    5    3    5    2
 0.03672121580261637    5    3    5    3
 0.0001451768056011153    5    3    5    4
 0.0005459487045836189    5    3    5    5
 0.005049550873539224    5    3    6    1
 0.002691504333514573    5    3    6    2
 -0.002407136101848288    5    3    6    3
 0.0005539545130198659    5    3    6    4
 -0.003185636061462568    5    3    6    5
 0.0005519945746964324    5    3    6    6
 -0.002101484993367396    5    3    7    1
 0.001109233581442271    5    3    7    2
 -0.003207512825287724    5    3    7    3
 0.00231285916041025    5    3    7    4
 -0.006425172355970676    5    3    7    5
 0.01012081413012989    5    3    7    6
 0.001883107793742759    5    3    7    7
 0.0002375068886376069    5    3    8    1
 -0.002752866332150427    5    3    8    2
 -0.006148275070124897    5    3    8    3
 -0.002457411361747479    5    3    8    4
 -0.007810149765657358    5    3    8    5
 0.000771771881651217    5    3    8    6
 0.01010524602324302    5    3    8    7
 0.0166472540982811    5    3    8    8
 0.0004957787405644563    5    3    9    1
 -0.002943715389930272    5    3    9    2
 0.003204626419077034    5    3    9    3
 -0.003773394172362847    5    3    9    4
 0.001003851357865703    5    3    9    5
 -0.009909490263306522    5    3    9    6
 -0.001456074004184222    5    3    9    7
 -0.001834657844169383    5    3    9    8
 0.004379512548158611    5    3    9    9
 -0.0006457662995752359    5    3   10    1
 0.0003472960651798894    5    3   10    2
 -0.008369759624476338    5    3   10    3
 -0.0005546583163360759    5    3   10    4