[Molden Format]
made by pyscf v[2.9.0]
[Atoms] (AU)
Co   1   27     2.84687051693114    20.34140128839999     0.78239196899693
S   2   16     1.70208009984800    24.50833243074155     1.63223204283183
S   3   16    -1.19207892362426    18.61566748665080     0.49818282904071
S   4   16     5.20410165663073    19.68252748808301    -2.83977837478565
S   5   16     5.72198299079391    18.66708315504797     3.63472946360643
C   6   6     4.49246670291589    26.40924951341629     1.72572813257081
C   7   6     4.30199553764260    29.03699872729961     1.58060094565646
H   8   1     2.72897617319790    29.78630537130765     1.34895264812890
C   9   6     6.42343798987571    30.52786224847885     1.77224563085310
H   10   1     6.25923968691225    32.27452665678371     1.67921252401464
C   11   6     8.77804241026215    29.49174998081945     2.10297037936548
H   12   1    10.19999895803525    30.51752922602973     2.22809670497743
C   13   6     8.99149831438852    26.91826425260301     2.24251720503399
H   14   1    10.57765505485120    26.20512885634527     2.49788723460321
C   15   6     6.89632872446524    25.33696410828046     2.01412490561906
H   16   1     7.09336668802140    23.59029969997560     2.05133928219012
C   17   6    -0.91294180858638    15.17995641957907     0.35351862502688
C   18   6    -3.03109991681499    13.78210899770317     0.13489431994983
H   19   1    -4.57784830867599    14.59859729516562    -0.03721248684494
C   20   6    -2.97527362764309    11.18536829979783     0.16280557480965
H   21   1    -4.47276252861505    10.28103041425660     0.00000000000000
C   22   6    -0.68963287244652     9.89345703473893     0.43724672042799
H   23   1    -0.63380469354850     8.13904096987110     0.53958105925156
C   24   6     1.46793358438377    11.31714268191600     0.55353668668147
H   25   1     3.02124877452763    10.50323952979195     0.65587102550505
C   26   6     1.39568557518939    13.95522491824845     0.51632231011041
H   27   1     2.88660578815237    14.88281777347858     0.60470291123020
C   28   6     3.79626514246038    21.25194125508204    -5.39906659062823
C   29   6     1.49748890097196    22.57744051227897    -5.14741743179827
H   30   1     0.67978173015917    22.61878394043220    -3.59100498053625
C   31   6     0.44990410601033    23.82026047207392    -7.19968645924167
H   32   1    -1.05743782697512    24.70134338792625    -7.00059814284037
C   33   6     1.60914336904189    23.76858402147156    -9.54360825784595
H   34   1     0.88010214799369    24.60057374233382   -10.90791115128469
C   35   6     3.84880897735391    22.48184115736334    -9.84223789785872
H   36   1     4.63039214356952    22.43533121798555   -11.41493033968387
C   37   6     4.94236891920009    21.25452451069432    -7.80066661000648
H   38   1     6.46941313676025    20.41219987765682    -8.02394153107609
C   39   6     4.32169971194345    17.40721219643106     6.37961524104705
C   40   6     5.75350929173003    17.22376136371054     8.61004008860994
H   41   1     7.38235683507276    17.88522030936592     8.65190319144743
C   42   6     4.78145496024113    16.06879288172049    10.75905931417883
H   43   1     5.76336043401738    15.93443335426391    12.21034630113130
C   44   6     2.34146704436846    15.12053020213987    10.73208158402453
H   45   1     1.67482269022727    14.33504664120315    12.15452757086390
C   46   6     0.90637501030351    15.35565748546275     8.54026573091263
H   47   1    -0.73889236333556    14.73554007823448     8.53096260920139
C   48   6     1.81931681888989    16.45895140657657     6.43310960818123
H   49   1     0.80128734051645    16.59589229991930     5.00507948064378
[GTO]
1 0
 s    8 1.00
          325817.01553  0.0002398353536197
          48839.636453  0.0018596633237351
          11114.937307  0.0096709152704258
          3146.1603642   0.039315971778749
          1024.4378465    0.12799461486096
          368.02508816    0.30391910494459
          142.91229205    0.43473318053545
          56.482649209    0.22848233723692
 s    4 1.00
          356.40298318  -0.024844682079028
          110.31165215   -0.11738814789025
          17.659634834    0.55388573077371
          7.5059030479    0.53413758009873
 s    2 1.00
          11.501807176   -0.37791187256515
          1.9081994606     1.1725032128157
 s    1 1.00
         0.79396696891                   1
 s    1 1.00
         0.12444448829                   1
 s    1 1.00
        0.044444645379                   1
 p    6 1.00
          1731.1369144  0.0027113690065776
          409.91750438   0.021984010744819
          131.45648578    0.10310407884161
          48.987439714    0.29655312888033
          19.537078992     0.4781436097905
          7.9287281634    0.27869112839934
 p    3 1.00
          31.076017584  -0.020509295921844
          4.2835180697    0.38746974460797
          1.7022921563    0.67420506418877
 p    1 1.00
         0.64202908602                   1
 p    1 1.00
              0.141308                   1
 d    4 1.00
          68.140745239   0.019697336268202
          19.685241019    0.12111871584173
          6.9322128825    0.37944647925134
          2.6025125694    0.64564604205304
 d    1 1.00
         0.94016837302                   1
 d    1 1.00
         0.30381457794                   1
 d    1 1.00
                 0.098                   1
 f    1 1.00
                 1.903                   1

2 0
 s    7 1.00
          60700.928104  0.00052380074898383
          9102.6106854  0.0040506326779468
          2071.4166009   0.020827004167607
          586.02476821   0.081496850342531
          190.55395021    0.23749113842034
           67.63038426    0.44726171513377
          25.127306905    0.34891918437499
 s    3 1.00
           112.5746301    0.10045569886009
          34.795554217     0.4339117294696
          6.5115556215    -1.2084330586056
 s    2 1.00
          3.2399032261     0.6749812941774
          1.5477160881    0.34708795756573
 s    1 1.00
         0.40541030112                   1
 s    1 1.00
         0.14550651059                   1
 p    5 1.00
          564.36716027  0.0034886923632558
          133.42624379   0.027685126784217
          42.468271189    0.12659400175827
           15.61652758    0.36165925672941
          6.1093988469    0.61222034442135
 p    1 1.00
          2.4404160198                   1
 p    1 1.00
         0.83882201296                   1
 p    1 1.00
           0.312887469                   1
 p    1 1.00
         0.10770109004                   1
 d    2 1.00
                 3.756    0.18285197459728
                 0.812     0.9142598729864
 d    1 1.00
                 0.273                   1
 f    1 1.00
                 0.557                   1

3 0
 s    7 1.00
          60700.928104  0.00052380074898383
          9102.6106854  0.0040506326779468
          2071.4166009   0.020827004167607
          586.02476821   0.081496850342531
          190.55395021    0.23749113842034
           67.63038426    0.44726171513377
          25.127306905    0.34891918437499
 s    3 1.00
           112.5746301    0.10045569886009
          34.795554217     0.4339117294696
          6.5115556215    -1.2084330586056
 s    2 1.00
          3.2399032261     0.6749812941774
          1.5477160881    0.34708795756573
 s    1 1.00
         0.40541030112                   1
 s    1 1.00
         0.14550651059                   1
 p    5 1.00
          564.36716027  0.0034886923632558
          133.42624379   0.027685126784217
          42.468271189    0.12659400175827
           15.61652758    0.36165925672941
          6.1093988469    0.61222034442135
 p    1 1.00
          2.4404160198                   1
 p    1 1.00
         0.83882201296                   1
 p    1 1.00
           0.312887469                   1
 p    1 1.00
         0.10770109004                   1
 d    2 1.00
                 3.756    0.18285197459728
                 0.812     0.9142598729864
 d    1 1.00
                 0.273                   1
 f    1 1.00
                 0.557                   1

4 0
 s    7 1.00
          60700.928104  0.00052380074898383
          9102.6106854  0.0040506326779468
          2071.4166009   0.020827004167607
          586.02476821   0.081496850342531
          190.55395021    0.23749113842034
           67.63038426    0.44726171513377
          25.127306905    0.34891918437499
 s    3 1.00
           112.5746301    0.10045569886009
          34.795554217     0.4339117294696
          6.5115556215    -1.2084330586056
 s    2 1.00
          3.2399032261     0.6749812941774
          1.5477160881    0.34708795756573
 s    1 1.00
         0.40541030112                   1
 s    1 1.00
         0.14550651059                   1
 p    5 1.00
          564.36716027  0.0034886923632558
          133.42624379   0.027685126784217
          42.468271189    0.12659400175827
           15.61652758    0.36165925672941
          6.1093988469    0.61222034442135
 p    1 1.00
          2.4404160198                   1
 p    1 1.00
         0.83882201296                   1
 p    1 1.00
           0.312887469                   1
 p    1 1.00
         0.10770109004                   1
 d    2 1.00
                 3.756    0.18285197459728
                 0.812     0.9142598729864
 d    1 1.00
                 0.273                   1
 f    1 1.00
                 0.557                   1

5 0
 s    7 1.00
          60700.928104  0.00052380074898383
          9102.6106854  0.0040506326779468
          2071.4166009   0.020827004167607
          586.02476821   0.081496850342531
          190.55395021    0.23749113842034
           67.63038426    0.44726171513377
          25.127306905    0.34891918437499
 s    3 1.00
           112.5746301    0.10045569886009
          34.795554217     0.4339117294696
          6.5115556215    -1.2084330586056
 s    2 1.00
          3.2399032261     0.6749812941774
          1.5477160881    0.34708795756573
 s    1 1.00
         0.40541030112                   1
 s    1 1.00
         0.14550651059                   1
 p    5 1.00
          564.36716027  0.0034886923632558
          133.42624379   0.027685126784217
          42.468271189    0.12659400175827
           15.61652758    0.36165925672941
          6.1093988469    0.61222034442135
 p    1 1.00
          2.4404160198                   1
 p    1 1.00
         0.83882201296                   1
 p    1 1.00
           0.312887469                   1
 p    1 1.00
         0.10770109004                   1
 d    2 1.00
                 3.756    0.18285197459728
                 0.812     0.9142598729864
 d    1 1.00
                 0.273                   1
 f    1 1.00
                 0.557                   1

6 0
 s    6 1.00
             3047.5249  0.0018347001629433
             457.36951    0.01403730124668
             103.94869   0.068842606114048
             29.210155    0.23218442062076
              9.286663    0.46794134155879
              3.163927    0.36231203217765
 s    3 1.00
             7.8682724   -0.11933240861517
             1.8812885   -0.16085421161283
             0.5442493     1.1434564825515
 s    1 1.00
             0.1687144                   1
 p    3 1.00
             7.8682724   0.068999095584993
             1.8812885    0.31642397975315
             0.5442493    0.74430825237435
 p    1 1.00
             0.1687144                   1
 d    1 1.00
                   0.8                   1

7 0
 s    6 1.00
             3047.5249  0.0018347001629433
             457.36951    0.01403730124668
             103.94869   0.068842606114048
             29.210155    0.23218442062076
              9.286663    0.46794134155879
              3.163927    0.36231203217765
 s    3 1.00
             7.8682724   -0.11933240861517
             1.8812885   -0.16085421161283
             0.5442493     1.1434564825515
 s    1 1.00
             0.1687144                   1
 p    3 1.00
             7.8682724   0.068999095584993
             1.8812885    0.31642397975315
             0.5442493    0.74430825237435
 p    1 1.00
             0.1687144                   1
 d    1 1.00
                   0.8                   1

8 0
 s    3 1.00
             18.731137    0.03349459952309
             2.8253937    0.23472694665786
             0.6401217    0.81375731841339
 s    1 1.00
             0.1612778                   1

9 0
 s    6 1.00
             3047.5249  0.0018347001629433
             457.36951    0.01403730124668
             103.94869   0.068842606114048
             29.210155    0.23218442062076
              9.286663    0.46794134155879
              3.163927    0.36231203217765
 s    3 1.00
             7.8682724   -0.11933240861517
             1.8812885   -0.16085421161283
             0.5442493     1.1434564825515
 s    1 1.00
             0.1687144                   1
 p    3 1.00
             7.8682724   0.068999095584993
             1.8812885    0.31642397975315
             0.5442493    0.74430825237435
 p    1 1.00
             0.1687144                   1
 d    1 1.00
                   0.8                   1

10 0
 s    3 1.00
             18.731137    0.03349459952309
             2.8253937    0.23472694665786
             0.6401217    0.81375731841339
 s    1 1.00
             0.1612778                   1

11 0
 s    6 1.00
             3047.5249  0.0018347001629433
             457.36951    0.01403730124668
             103.94869   0.068842606114048
             29.210155    0.23218442062076
              9.286663    0.46794134155879
              3.163927    0.36231203217765
 s    3 1.00
             7.8682724   -0.11933240861517
             1.8812885   -0.16085421161283
             0.5442493     1.1434564825515
 s    1 1.00
             0.1687144                   1
 p    3 1.00
             7.8682724   0.068999095584993
             1.8812885    0.31642397975315
             0.5442493    0.74430825237435
 p    1 1.00
             0.1687144                   1
 d    1 1.00
                   0.8                   1

12 0
 s    3 1.00
             18.731137    0.03349459952309
             2.8253937    0.23472694665786
             0.6401217    0.81375731841339
 s    1 1.00
             0.1612778                   1

13 0
 s    6 1.00
             3047.5249  0.0018347001629433
             457.36951    0.01403730124668
             103.94869   0.068842606114048
             29.210155    0.23218442062076
              9.286663    0.46794134155879
              3.163927    0.36231203217765
 s    3 1.00
             7.8682724   -0.11933240861517
             1.8812885   -0.16085421161283
             0.5442493     1.1434564825515
 s    1 1.00
             0.1687144                   1
 p    3 1.00
             7.8682724   0.068999095584993
             1.8812885    0.31642397975315
             0.5442493    0.74430825237435
 p    1 1.00
             0.1687144                   1
 d    1 1.00
                   0.8                   1

14 0
 s    3 1.00
             18.731137    0.03349459952309
             2.8253937    0.23472694665786
             0.6401217    0.81375731841339
 s    1 1.00
             0.1612778                   1

15 0
 s    6 1.00
             3047.5249  0.0018347001629433
             457.36951    0.01403730124668
             103.94869   0.068842606114048
             29.210155    0.23218442062076
              9.286663    0.46794134155879
              3.163927    0.36231203217765
 s    3 1.00
             7.8682724   -0.11933240861517
             1.8812885   -0.16085421161283
             0.5442493     1.1434564825515
 s    1 1.00
             0.1687144                   1
 p    3 1.00
             7.8682724   0.068999095584993
             1.8812885    0.31642397975315
             0.5442493    0.74430825237435
 p    1 1.00
             0.1687144                   1
 d    1 1.00
                   0.8                   1

16 0
 s    3 1.00
             18.731137    0.03349459952309
             2.8253937    0.23472694665786
             0.6401217    0.81375731841339
 s    1 1.00
             0.1612778                   1

17 0
 s    6 1.00
             3047.5249  0.0018347001629433
             457.36951    0.01403730124668
             103.94869   0.068842606114048
             29.210155    0.23218442062076
              9.286663    0.46794134155879
              3.163927    0.36231203217765
 s    3 1.00
             7.8682724   -0.11933240861517
             1.8812885   -0.16085421161283
             0.5442493     1.1434564825515
 s    1 1.00
             0.1687144                   1
 p    3 1.00
             7.8682724   0.068999095584993
             1.8812885    0.31642397975315
             0.5442493    0.74430825237435
 p    1 1.00
             0.1687144                   1
 d    1 1.00
                   0.8                   1

18 0
 s    6 1.00
             3047.5249  0.0018347001629433
             457.36951    0.01403730124668
             103.94869   0.068842606114048
             29.210155    0.23218442062076
              9.286663    0.46794134155879
              3.163927    0.36231203217765
 s    3 1.00
             7.8682724   -0.11933240861517
             1.8812885   -0.16085421161283
             0.5442493     1.1434564825515
 s    1 1.00
             0.1687144                   1
 p    3 1.00
             7.8682724   0.068999095584993
             1.8812885    0.31642397975315
             0.5442493    0.74430825237435
 p    1 1.00
             0.1687144                   1
 d    1 1.00
                   0.8                   1

19 0
 s    3 1.00
             18.731137    0.03349459952309
             2.8253937    0.23472694665786
             0.6401217    0.81375731841339
 s    1 1.00
             0.1612778                   1

20 0
 s    6 1.00
             3047.5249  0.0018347001629433
             457.36951    0.01403730124668
             103.94869   0.068842606114048
             29.210155    0.23218442062076
              9.286663    0.46794134155879
              3.163927    0.36231203217765
 s    3 1.00
             7.8682724   -0.11933240861517
             1.8812885   -0.16085421161283
             0.5442493     1.1434564825515
 s    1 1.00
             0.1687144                   1
 p    3 1.00
             7.8682724   0.068999095584993
             1.8812885    0.31642397975315
             0.5442493    0.74430825237435
 p    1 1.00
             0.1687144                   1
 d    1 1.00
                   0.8                   1

21 0
 s    3 1.00
             18.731137    0.03349459952309
             2.8253937    0.23472694665786
             0.6401217    0.81375731841339
 s    1 1.00
             0.1612778                   1

22 0
 s    6 1.00
             3047.5249  0.0018347001629433
             457.36951    0.01403730124668
             103.94869   0.068842606114048
             29.210155    0.23218442062076
              9.286663    0.46794134155879
              3.163927    0.36231203217765
 s    3 1.00
             7.8682724   -0.11933240861517
             1.8812885   -0.16085421161283
             0.5442493     1.1434564825515
 s    1 1.00
             0.1687144                   1
 p    3 1.00
             7.8682724   0.068999095584993
             1.8812885    0.31642397975315
             0.5442493    0.74430825237435
 p    1 1.00
             0.1687144                   1
 d    1 1.00
                   0.8                   1

23 0
 s    3 1.00
             18.731137    0.03349459952309
             2.8253937    0.23472694665786
             0.6401217    0.81375731841339
 s    1 1.00
             0.1612778                   1

24 0
 s    6 1.00
             3047.5249  0.0018347001629433
             457.36951    0.01403730124668
             103.94869   0.068842606114048
             29.210155    0.23218442062076
              9.286663    0.46794134155879
              3.163927    0.36231203217765
 s    3 1.00
             7.8682724   -0.11933240861517
             1.8812885   -0.16085421161283
             0.5442493     1.1434564825515
 s    1 1.00
             0.1687144                   1
 p    3 1.00
             7.8682724   0.068999095584993
             1.8812885    0.31642397975315
             0.5442493    0.74430825237435
 p    1 1.00
             0.1687144                   1
 d    1 1.00
                   0.8                   1

25 0
 s    3 1.00
             18.731137    0.03349459952309
             2.8253937    0.23472694665786
             0.6401217    0.81375731841339
 s    1 1.00
             0.1612778                   1

26 0
 s    6 1.00
             3047.5249  0.0018347001629433
             457.36951    0.01403730124668
             103.94869   0.068842606114048
             29.210155    0.23218442062076
              9.286663    0.46794134155879
              3.163927    0.36231203217765
 s    3 1.00
             7.8682724   -0.11933240861517
             1.8812885   -0.16085421161283
             0.5442493     1.1434564825515
 s    1 1.00
             0.1687144                   1
 p    3 1.00
             7.8682724   0.068999095584993
             1.8812885    0.31642397975315
             0.5442493    0.74430825237435
 p    1 1.00
             0.1687144                   1
 d    1 1.00
                   0.8                   1

27 0
 s    3 1.00
             18.731137    0.03349459952309
             2.8253937    0.23472694665786
             0.6401217    0.81375731841339
 s    1 1.00
             0.1612778                   1

28 0
 s    6 1.00
             3047.5249  0.0018347001629433
             457.36951    0.01403730124668
             103.94869   0.068842606114048
             29.210155    0.23218442062076
              9.286663    0.46794134155879
              3.163927    0.36231203217765
 s    3 1.00
             7.8682724   -0.11933240861517
             1.8812885   -0.16085421161283
             0.5442493     1.1434564825515
 s    1 1.00
             0.1687144                   1
 p    3 1.00
             7.8682724   0.068999095584993
             1.8812885    0.31642397975315
             0.5442493    0.74430825237435
 p    1 1.00
             0.1687144                   1
 d    1 1.00
                   0.8                   1

29 0
 s    6 1.00
             3047.5249  0.0018347001629433
             457.36951    0.01403730124668
             103.94869   0.068842606114048
             29.210155    0.23218442062076
              9.286663    0.46794134155879
              3.163927    0.36231203217765
 s    3 1.00
             7.8682724   -0.11933240861517
             1.8812885   -0.16085421161283
             0.5442493     1.1434564825515
 s    1 1.00
             0.1687144                   1
 p    3 1.00
             7.8682724   0.068999095584993
             1.8812885    0.31642397975315
             0.5442493    0.74430825237435
 p    1 1.00
             0.1687144                   1
 d    1 1.00
                   0.8                   1

30 0
 s    3 1.00
             18.731137    0.03349459952309
             2.8253937    0.23472694665786
             0.6401217    0.81375731841339
 s    1 1.00
             0.1612778                   1

31 0
 s    6 1.00
             3047.5249  0.0018347001629433
             457.36951    0.01403730124668
             103.94869   0.068842606114048
             29.210155    0.23218442062076
              9.286663    0.46794134155879
              3.163927    0.36231203217765
 s    3 1.00
             7.8682724   -0.11933240861517
             1.8812885   -0.16085421161283
             0.5442493     1.1434564825515
 s    1 1.00
             0.1687144                   1
 p    3 1.00
             7.8682724   0.068999095584993
             1.8812885    0.31642397975315
             0.5442493    0.74430825237435
 p    1 1.00
             0.1687144                   1
 d    1 1.00
                   0.8                   1

32 0
 s    3 1.00
             18.731137    0.03349459952309
             2.8253937    0.23472694665786
             0.6401217    0.81375731841339
 s    1 1.00
             0.1612778                   1

33 0
 s    6 1.00
             3047.5249  0.0018347001629433
             457.36951    0.01403730124668
             103.94869   0.068842606114048
             29.210155    0.23218442062076
              9.286663    0.46794134155879
              3.163927    0.36231203217765
 s    3 1.00
             7.8682724   -0.11933240861517
             1.8812885   -0.16085421161283
             0.5442493     1.1434564825515
 s    1 1.00
             0.1687144                   1
 p    3 1.00
             7.8682724   0.068999095584993
             1.8812885    0.31642397975315
             0.5442493    0.74430825237435
 p    1 1.00
             0.1687144                   1
 d    1 1.00
                   0.8                   1

34 0
 s    3 1.00
             18.731137    0.03349459952309
             2.8253937    0.23472694665786
             0.6401217    0.81375731841339
 s    1 1.00
             0.1612778                   1

35 0
 s    6 1.00
             3047.5249  0.0018347001629433
             457.36951    0.01403730124668
             103.94869   0.068842606114048
             29.210155    0.23218442062076
              9.286663    0.46794134155879
              3.163927    0.36231203217765
 s    3 1.00
             7.8682724   -0.11933240861517
             1.8812885   -0.16085421161283
             0.5442493     1.1434564825515
 s    1 1.00
             0.1687144                   1
 p    3 1.00
             7.8682724   0.068999095584993
             1.8812885    0.31642397975315
             0.5442493    0.74430825237435
 p    1 1.00
             0.1687144                   1
 d    1 1.00
                   0.8                   1

36 0
 s    3 1.00
             18.731137    0.03349459952309
             2.8253937    0.23472694665786
             0.6401217    0.81375731841339
 s    1 1.00
             0.1612778                   1

37 0
 s    6 1.00
             3047.5249  0.0018347001629433
             457.36951    0.01403730124668
             103.94869   0.068842606114048
             29.210155    0.23218442062076
              9.286663    0.46794134155879
              3.163927    0.36231203217765
 s    3 1.00
             7.8682724   -0.11933240861517
             1.8812885   -0.16085421161283
             0.5442493     1.1434564825515
 s    1 1.00
             0.1687144                   1
 p    3 1.00
             7.8682724   0.068999095584993
             1.8812885    0.31642397975315
             0.5442493    0.74430825237435
 p    1 1.00
             0.1687144                   1
 d    1 1.00
                   0.8                   1

38 0
 s    3 1.00
             18.731137    0.03349459952309
             2.8253937    0.23472694665786
             0.6401217    0.81375731841339
 s    1 1.00
             0.1612778                   1

39 0
 s    6 1.00
             3047.5249  0.0018347001629433
             457.36951    0.01403730124668
             103.94869   0.068842606114048
             29.210155    0.23218442062076
              9.286663    0.46794134155879
              3.163927    0.36231203217765
 s    3 1.00
             7.8682724   -0.11933240861517
             1.8812885   -0.16085421161283
             0.5442493     1.1434564825515
 s    1 1.00
             0.1687144                   1
 p    3 1.00
             7.8682724   0.068999095584993
             1.8812885    0.31642397975315
             0.5442493    0.74430825237435
 p    1 1.00
             0.1687144                   1
 d    1 1.00
                   0.8                   1

40 0
 s    6 1.00
             3047.5249  0.0018347001629433
             457.36951    0.01403730124668
             103.94869   0.068842606114048
             29.210155    0.23218442062076
              9.286663    0.46794134155879
              3.163927    0.36231203217765
 s    3 1.00
             7.8682724   -0.11933240861517
             1.8812885   -0.16085421161283
             0.5442493     1.1434564825515
 s    1 1.00
             0.1687144                   1
 p    3 1.00
             7.8682724   0.068999095584993
             1.8812885    0.31642397975315
             0.5442493    0.74430825237435
 p    1 1.00
             0.1687144                   1
 d    1 1.00
                   0.8                   1

41 0
 s    3 1.00
             18.731137    0.03349459952309
             2.8253937    0.23472694665786
             0.6401217    0.81375731841339
 s    1 1.00
             0.1612778                   1

42 0
 s    6 1.00
             3047.5249  0.0018347001629433
             457.36951    0.01403730124668
             103.94869   0.068842606114048
             29.210155    0.23218442062076
              9.286663    0.46794134155879
              3.163927    0.36231203217765
 s    3 1.00
             7.8682724   -0.11933240861517
             1.8812885   -0.16085421161283
             0.5442493     1.1434564825515
 s    1 1.00
             0.1687144                   1
 p    3 1.00
             7.8682724   0.068999095584993
             1.8812885    0.31642397975315
             0.5442493    0.74430825237435
 p    1 1.00
             0.1687144                   1
 d    1 1.00
                   0.8                   1

43 0
 s    3 1.00
             18.731137    0.03349459952309
             2.8253937    0.23472694665786
             0.6401217    0.81375731841339
 s    1 1.00
             0.1612778                   1

44 0
 s    6 1.00
             3047.5249  0.0018347001629433
             457.36951    0.01403730124668
             103.94869   0.068842606114048
             29.210155    0.23218442062076
              9.286663    0.46794134155879
              3.163927    0.36231203217765
 s    3 1.00
             7.8682724   -0.11933240861517
             1.8812885   -0.16085421161283
             0.5442493     1.1434564825515
 s    1 1.00