 &FCI NORB=  22,NELEC=31,MS2=3,
  ORBSYM=1,1,1,1,1,1,1,1,1,1,1,1,1,1,1,1,1,1,1,1,1,1,
  ISYM=1,
 &END
 0.2218078214698636    1    1    1    1
 -0.02410357033873391    1    1    2    1
 0.1925576331379331    1    1    2    2
 0.01344853567910635    1    1    3    1
 -0.009227336784932637    1    1    3    2
 0.1939929272942479    1    1    3    3
 0.01104483319418572    1    1    4    1
 -0.001317662051870321    1    1    4    2
 0.0131671546392229    1    1    4    3
 0.181899791417371    1    1    4    4
 0.004147989884579869    1    1    5    1
 0.007622933257546797    1    1    5    2
 -0.0006079267200420767    1    1    5    3
 -0.002673734577895745    1    1    5    4
 0.1923962469821566    1    1    5    5
 0.003380406499409692    1    1    6    1
 0.001167398673531344    1    1    6    2
 -0.0009688327632757797    1    1    6    3
 0.009164481462798918    1    1    6    4
 0.008075320117017865    1    1    6    5
 0.1880783265876366    1    1    6    6
 -0.002790981453888407    1    1    7    1
 0.0008832128857465715    1    1    7    2
 -0.006054017825606592    1    1    7    3
 0.001363584132351915    1    1    7    4
 -0.007765581673705987    1    1    7    5
 -0.01766894063452046    1    1    7    6
 0.2060709136987698    1    1    7    7
 -0.006311829162012039    1    1    8    1
 0.00727156720988508    1    1    8    2
 0.0006248774007794108    1    1    8    3
 -0.0009078969814144271    1    1    8    4
 -0.02102119019881446    1    1    8    5
 -0.002498249927014652    1    1    8    6
 0.007390033513061601    1    1    8    7
 0.1961689120246485    1    1    8    8
 0.001338601784111242    1    1    9    1
 -0.002419649204576956    1    1    9    2
 0.001863674833227016    1    1    9    3
 0.001265402523185406    1    1    9    4
 0.003859040041705586    1    1    9    5
 0.01033468881251544    1    1    9    6
 -0.008550889227339901    1    1    9    7
 -0.003505767324216301    1    1    9    8
 0.181078614285186    1    1    9    9
 0.001226666635583487    1    1   10    1
 0.0009526878046051729    1    1   10    2
 -0.003870537422589161    1    1   10    3
 -0.002239745536427769    1    1   10    4
 0.001344302031339044    1    1   10    5
 -0.002664371199963922    1    1   10    6
 -0.007179046263676972    1    1   10    7
 -0.003279078114142479    1    1   10    8
 -0.01277089229356645    1    1   10    9
 0.1882577360295087    1    1   10   10
 -0.00143408206226112    1    1   11    1
 0.002307829393793405    1    1   11    2
 0.01460143076554316    1    1   11    3
 0.0001773990617734543    1    1   11    4
 0.002297943086884913    1    1   11    5
 -0.001855663528268725    1    1   11    6
 -0.005358385782885251    1    1   11    7
 -0.0004659369887259969    1    1   11    8
 -0.009258440897008939    1    1   11    9
 0.00810409274692649    1    1   11   10
 0.1889940457930363    1    1   11   11
 6.337543667456838e-05    1    1   12    1
 -0.0007593056552940384    1    1   12    2
 -0.00843306173960622    1    1   12    3
 -0.0006833209257890304    1    1   12    4
 -0.0007844803495349843    1    1   12    5
 0.001622946638153122    1    1   12    6
 0.00264609105554385    1    1   12    7
 -0.001422313290602623    1    1   12    8
 0.008250368749847596    1    1   12    9
 0.002520706405447026    1    1   12   10
 -0.02206128162732086    1    1   12   11
 0.1910541706913214    1    1   12   12
 -0.002871147811274232    1    1   13    1
 -0.001303065217839572    1    1   13    2
 -1.255042839197953e-05    1    1   13    3
 0.000902928589296717    1    1   13    4
 0.001643547226847393    1    1   13    5
 0.0003638567920266375    1    1   13    6
 8.051473977332391e-05    1    1   13    7
 0.002129928168702814    1    1   13    8
 -0.0005477712890184755    1    1   13    9
 -0.00165532500722238    1    1   13   10
 0.0007999706421663641    1    1   13   11
 -0.0002376070089410398    1    1   13   12
 0.2372741716466314    1    1   13   13
 0.0003776543425538507    1    1   14    1
 9.581853240780932e-05    1    1   14    2
 0.0002077298447053128    1    1   14    3
 -0.0002690777114014416    1    1   14    4
 0.0001255820425900957    1    1   14    5
 0.0002552231644976392    1    1   14    6
 -0.0004100257485385935    1    1   14    7
 0.00127225462000158    1    1   14    8
 -0.0006437529136667017    1    1   14    9
 -0.00351920549708638    1    1   14   10
 0.005297896431150319    1    1   14   11
 0.003294257507413544    1    1   14   12
 -0.0001857006431909664    1    1   14   13
 0.2342435487658843    1    1   14   14
 -0.001310235003421401    1    1   15    1
 -4.820883710916152e-05    1    1   15    2
 2.107300789895901e-05    1    1   15    3
 -4.654116248066869e-06    1    1   15    4
 -0.003112731696039425    1    1   15    5
 4.53881899557818e-05    1    1   15    6
 0.0007180557032842086    1    1   15    7
 -0.006060354090095096    1    1   15    8
 0.0004225374305815943    1    1   15    9
 -0.002289332236588871    1    1   15   10
 0.0009060848266472576    1    1   15   11
 -0.0008227943391966743    1    1   15   12
 0.001305249235400462    1    1   15   13
 1.916171233574377e-06    1    1   15   14
 0.2340760953226286    1    1   15   15
 -4.101372208794917e-05    1    1   16    1
 -0.0004142765147623242    1    1   16    2
 0.00149645848317591    1    1   16    3
 -0.004054466336466517    1    1   16    4
 0.0002788139687761173    1    1   16    5
 -0.005618338633292325    1    1   16    6
 -0.003620425924150658    1    1   16    7
 0.001236264900316499    1    1   16    8
 0.004814222100587865    1    1   16    9
 -0.003164392313745234    1    1   16   10
 -0.0006285785417899538    1    1   16   11
 -7.68207580465208e-05    1    1   16   12
 4.796781261309266e-05    1    1   16   13
 -0.0006025060989327424    1    1   16   14
 -4.375359909417736e-06    1    1   16   15
 0.2350832842956073    1    1   16   16
 0.001750548447741543    1    1   17    1
 -0.000589920098084708    1    1   17    2
 0.0004726765810195158    1    1   17    3
 -0.001044843734584186    1    1   17    4
 0.001270372318749452    1    1   17    5
 -0.002077790551012876    1    1   17    6
 0.0007089563304974035    1    1   17    7
 -0.0009990498397689151    1    1   17    8
 -0.00529616974024777    1    1   17    9
 -0.004622861498416464    1    1   17   10
 -0.002398535577956835    1    1   17   11
 -0.0005740401444476025    1    1   17   12
 0.0002548537864985664    1    1   17   13
 -0.0002528915038310612    1    1   17   14
 -0.0001577348512748125    1    1   17   15
 -2.518849468900922e-06    1    1   17   16
 0.2356701603645763    1    1   17   17
 -0.0004389085464156469    1    1   18    1
 0.0001914479239538481    1    1   18    2
 0.0003030244008034268    1    1   18    3
 -7.142078936575332e-05    1    1   18    4
 -8.393638250343781e-05    1    1   18    5
 -0.0003514298826266663    1    1   18    6
 -0.0003519251768634539    1    1   18    7
 0.0007284975762146787    1    1   18    8
 -0.0008954531754244902    1    1   18    9
 -0.002717555244621542    1    1   18   10
 0.00446389724641881    1    1   18   11
 0.002037357573736222    1    1   18   12
 -0.0003807586166755629    1    1   18   13
 -0.00600745885823    1    1   18   14
 -0.0006334563870214997    1    1   18   15
 -0.0003692847507310308    1    1   18   16
 -0.0003257863813282462    1    1   18   17
 0.2288254671743069    1    1   18   18
 -0.00442935534346474    1    1   19    1
 0.0004314901686431293    1    1   19    2
 -0.0001340422511917811    1    1   19    3
 0.0005949790296663989    1    1   19    4
 0.001409194902332471    1    1   19    5
 0.0002565045733652724    1    1   19    6
 -0.0001157474226853933    1    1   19    7
 0.00389462923487098    1    1   19    8
 -0.0005432992730324551    1    1   19    9
 -0.001248395242113909    1    1   19   10
 4.687908649014234e-05    1    1   19   11
 -0.0006703242886254855    1    1   19   12
 -0.003453699427698045    1    1   19   13
 0.0005194834689465325    1    1   19   14
 0.002048919282755642    1    1   19   15
 -8.226686280653798e-05    1    1   19   16
 0.0003560016765435908    1    1   19   17
 0.000757202363265749    1    1   19   18
 0.2332143230241933    1    1   19   19
 -0.0003413112258598659    1    1   20    1
 0.0005251637660811919    1    1   20    2
 -0.001971509834618268    1    1   20    3
 -0.0008185035543403078    1    1   20    4
 0.000261237012330052    1    1   20    5
 -0.002307286605130653    1    1   20    6
 0.004214984878658672    1    1   20    7
 0.001629664044068826    1    1   20    8
 -0.005724097142457985    1    1   20    9
 -0.002340792615183412    1    1   20   10
 -0.001613210427647403    1    1   20   11
 -0.0002738653453103359    1    1   20   12
 -0.0002727218837972429    1    1   20   13
 -0.0001668798069395677    1    1   20   14
 0.002039468502004164    1    1   20   15
 0.001895562537828667    1    1   20   16
 -0.005511978292087953    1    1   20   17
 -2.704589268615943e-05    1    1   20   18
 -0.0002266173431030628    1    1   20   19
 0.2295949105214114    1    1   20   20
 0.0002177823316331513    1    1   21    1
 -0.0006228612306368996    1    1   21    2
 0.000335754329765922    1    1   21    3
 -0.003083140668985245    1    1   21    4
 -0.0001941424776224555    1    1   21    5
 -0.0007884418477045353    1    1   21    6
 0.0001182165279159302    1    1   21    7
 0.001196461577423759    1    1   21    8
 0.001695267652569789    1    1   21    9
 -0.003399694948757155    1    1   21   10
 -0.0009568394396492622    1    1   21   11
 8.812843805298028e-05    1    1   21   12
 1.733620222216179e-05    1    1   21   13
 -0.00132588918723674    1    1   21   14
 0.0006225774713035449    1    1   21   15
 -0.003805788558010679    1    1   21   16
 -0.00153737775817368    1    1   21   17
 -0.001730469869529252    1    1   21   18
 0.0001089936058180921    1    1   21   19
 -0.0003864673572091494    1    1   21   20
 0.2323959381394008    1    1   21   21
 0.0005867500911150102    1    1   22    1
 0.0002179941805396374    1    1   22    2
 0.0002530569762039071    1    1   22    3
 -0.0006752178402214535    1    1   22    4
 -0.001149382656191291    1    1   22    5
 -0.0003913533074189468    1    1   22    6
 0.0004395892233142408    1    1   22    7
 -0.004054277304255479    1    1   22    8
 -0.0009099955086870685    1    1   22    9
 -0.00239514933137603    1    1   22   10
 -0.0006437212155433159    1    1   22   11
 -0.001055618898646271    1    1   22   12
 0.001831714408388958    1    1   22   13
 0.0006821736394838633    1    1   22   14
 -0.005924064123175286    1    1   22   15
 -0.0001035809277572297    1    1   22   16
 -0.001490993334629732    1    1   22   17
 0.0001441107714673066    1    1   22   18
 0.003321039146185942    1    1   22   19
 0.0009211993205016305    1    1   22   20
 0.0004797489860761811    1    1   22   21
 0.2283912776300072    1    1   22   22
 -0.02410357033873391    2    1    1    1
 0.055949143880648    2    1    2    1
 0.03070897365327487    2    1    2    2
 -0.01101475740138098    2    1    3    1
 -0.004996876325000548    2    1    3    2
 -0.02023479402615584    2    1    3    3
 -0.001368171214922593    2    1    4    1
 0.01424678776792381    2    1    4    2
 -0.03550468466607292    2    1    4    3
 0.03667066945661151    2    1    4    4
 0.004327770449917122    2    1    5    1
 -0.01411959497848104    2    1    5    2
 0.001462550942285219    2    1    5    3
 -0.001224831354699013    2    1    5    4
 0.002437856072219664    2    1    5    5
 0.001289997510648923    2    1    6    1
 -0.0003776755597404171    2    1    6    2
 -0.001004973679233518    2    1    6    3
 -0.0001849978993185625    2    1    6    4
 0.0001999246352098138    2    1    6    5
 0.02201081227623198    2    1    6    6
 0.001837836214069138    2    1    7    1
 0.0007306517019211209    2    1    7    2
 -2.679180578017596e-05    2    1    7    3
 -0.001338941776121414    2    1    7    4
 0.007421407452964492    2    1    7    5
 0.0373114271963178    2    1    7    6
 -0.01936560046231905    2    1    7    7
 0.009514661152972979    2    1    8    1
 0.002686698595071503    2    1    8    2
 -0.0004240581279623491    2    1    8    3
 -0.0007458411159514437    2    1    8    4
 0.04544723763823928    2    1    8    5
 0.006319589565127614    2    1    8    6
 0.005137923096361445    2    1    8    7
 -0.003168405072437489    2    1    8    8
 -0.002324454778172129    2    1    9    1
 0.0004320838063689748    2    1    9    2
 0.002023899755210184    2    1    9    3
 -0.003216067704721062    2    1    9    4
 -0.007250286508482167    2    1    9    5
 -0.02208698048696306    2    1    9    6
 0.01091788078685962    2    1    9    7
 -0.00105688501198087    2    1    9    8
 0.01675413407013728    2    1    9    9
 0.0001944715423782995    2    1   10    1
 0.001127799922379488    2    1   10    2
 0.0005688483125867207    2    1   10    3
 0.002389994481019727    2    1   10    4
 0.003994753567182789    2    1   10    5
 0.01192844977396777    2    1   10    6
 0.01893111875680355    2    1   10    7
 0.008721142990768541    2    1   10    8
 0.02761199835258648    2    1   10    9
 -0.01704350708339329    2    1   10   10
 -0.0005473689119422682    2    1   11    1
 -0.0003102890029214172    2    1   11    2
 0.0006103523572941839    2    1   11    3
 0.002004006678653399    2    1   11    4
 -0.003645022422849703    2    1   11    5
 0.003115607067432032    2    1   11    6
 0.01110502229022169    2    1   11    7
 0.001241401260860796    2    1   11    8
 0.0205169725007215    2    1   11    9
 -0.002931808328212362    2    1   11   10
 0.002516744119132748    2    1   11   11
 -0.001206987902848346    2    1   12    1
 0.002708344606730352    2    1   12    2
 0.01475525682092482    2    1   12    3
 0.002549449391641117    2    1   12    4
 0.001985805417669627    2    1   12    5
 -0.0004893807071992329    2    1   12    6
 0.001176879840810008    2    1   12    7
 0.005107379948259829    2    1   12    8
 -0.0007696674069210368    2    1   12    9
 -0.01084649678753464    2    1   12   10
 0.045343449551411    2    1   12   11
 0.002144647040043854    2    1   12   12
 -0.00053007636582777    2    1   13    1
 0.001429652751215556    2    1   13    2
 -0.0001143373643482379    2    1   13    3
 0.0004909956045183151    2    1   13    4
 -2.757625843462067e-05    2    1   13    5
 0.0004159978350989258    2    1   13    6
 -0.000290392535444097    2    1   13    7
 -0.003693964090863243    2    1   13    8
 0.001189842240887617    2    1   13    9
 -0.001159597670936259    2    1   13   10
 0.0007714337635305789    2    1   13   11
 -0.00120625053847934    2    1   13   12
 0.004108396589771932    2    1   13   13
 -1.515346725090906e-05    2    1   14    1
 -0.0003947811835852057    2    1   14    2
 -0.0001036868679106651    2    1   14    3
 -4.478815717572341e-05    2    1   14    4
 -0.0008662529113936991    2    1   14    5
 -2.419563678556799e-05    2    1   14    6
 -0.000490516596121232    2    1   14    7
 0.0007714657251587604    2    1   14    8
 -0.0003199253408809016    2    1   14    9
 -0.0005675450218362476    2    1   14   10
 5.746117214977217e-05    2    1   14   11
 -0.006257602708130795    2    1   14   12
 0.0002872874446018058    2    1   14   13
 0.004165355174433484    2    1   14   14
 0.002727554421924847    2    1   15    1
 0.0005236243942966352    2    1   15    2
 0.0001987881821550236    2    1   15    3
 -0.0002075239023154593    2    1   15    4
 0.006040931504061928    2    1   15    5
 0.001193957407199463    2    1   15    6
 0.0005414514312930412    2    1   15    7
 -0.0004190182736938673    2    1   15    8
 0.0002310127855702975    2    1   15    9
 -0.0001162141676458481    2    1   15   10
 0.0005920668321440992    2    1   15   11
 -0.0009380181408221182    2    1   15   12
 -0.002796512716991044    2    1   15   13
 -9.050946830251523e-05    2    1   15   14
 0.004081959051770661    2    1   15   15
 0.001230611843488288    2    1   16    1
 0.001357087865166796    2    1   16    2
 -0.001923597583316014    2    1   16    3
 0.004108912999210001    2    1   16    4
 0.0003513223316939248    2    1   16    5
 0.005248614750974261    2    1   16    6
 0.001120083791177928    2    1   16    7
 0.001200257320498934    2    1   16    8
 0.0007295837541604749    2    1   16    9
 -0.002207994092702194    2    1   16   10
 -0.001855945062089083    2    1   16   11
 0.0009655761636613303    2    1   16   12
 0.0002646531833218878    2    1   16   13
 0.0003000464424301083    2    1   16   14
 0.0002578456745030339    2    1   16   15
 0.004615815834479195    2    1   16   16
 -0.001174547773723093    2    1   17    1
 0.000497170816808383    2    1   17    2
 -0.003433084636080011    2    1   17    3
 -0.00118891238785877    2    1   17    4
 -0.0007998645534682154    2    1   17    5
 -0.002149015516375532    2    1   17    6
 0.005443030522820309    2    1   17    7
 0.0004090885988995864    2    1   17    8
 0.001080466785162889    2    1   17    9
 0.00102133346985119    2    1   17   10
 0.001142266265830145    2    1   17   11
 0.001567811005702393    2    1   17   12
 0.0002081125885438221    2    1   17   13
 -0.0004537151069597044    2    1   17   14
 0.0001324120848664906    2    1   17   15
 0.0002545114777082257    2    1   17   16
 0.003326961614944103    2    1   17   17
 0.0002732896065773908    2    1   18    1
 -0.0006867219062130938    2    1   18    2
 -8.242052698346209e-05    2    1   18    3
 -6.686835390722881e-05    2    1   18    4
 -0.0001018444886498127    2    1   18    5
 0.00038286565943605    2    1   18    6
 0.0001622139280702594    2    1   18    7
 -0.0004054732772598539    2    1   18    8
 6.72106936112113e-05    2    1   18    9
 -0.0004094125474773472    2    1   18   10
 0.0002621185782387506    2    1   18   11
 -0.004562094421003793    2    1   18   12
 -0.0001780602566878397    2    1   18   13
 -0.0003781859663442705    2    1   18   14
 -0.000784751024456607    2    1   18   15
 0.00054749553066244    2    1   18   16
 -0.0004474118405132592    2    1   18   17
 0.003478948166585877    2    1   18   18
 0.0005149210854277125    2    1   19    1
 -0.002615334437510339    2    1   19    2
 -0.0001553654830745337    2    1   19    3
 0.00114340387271878    2    1   19    4
 -2.223855350290009e-05    2    1   19    5
 0.0006437474722800205    2    1   19    6
 -0.0003586087499671075    2    1   19    7
 -0.008125666398081691    2    1   19    8
 0.001643032389877425    2    1   19    9
 -0.001239380829016941    2    1   19   10
 0.0007330979319990551    2    1   19   11
 -2.208472287961432e-05    2    1   19   12
 -0.0005070202014560444    2    1   19   13
 0.0007008350063096302    2    1   19   14
 -0.004823215683271752    2    1   19   15
 0.0002552205342699914    2    1   19   16
 0.0004446872787284679    2    1   19   17
 -0.0001831068511231724    2    1   19   18
 0.002920056226979476    2    1   19   19
 0.0002770307362913511    2    1   20    1
 0.0001242208308514826    2    1   20    2
 -2.463606151587584e-05    2    1   20    3
 4.250278044135446e-05    2    1   20    4
 -0.0003767276282986019    2    1   20    5
 0.002334255116142717    2    1   20    6
 -0.002787240671347582    2    1   20    7
 -0.0001735330446656482    2    1   20    8
 0.0009456538590941629    2    1   20    9
 0.002412267651345317    2    1   20   10
 0.0009529232787234818    2    1   20   11
 0.001222967287813895    2    1   20   12
 0.0009577712875453355    2    1   20   13
 -0.0004988015078052514    2    1   20   14
 6.729644311449993e-05    2    1   20   15
 0.0002222115991658637    2    1   20   16
 0.001298974625718599    2    1   20   17
 -0.0007726665427687537    2    1   20   18
 0.002184493079132187    2    1   20   19
 0.005850935613739438    2    1   20   20
 0.0003459870353528638    2    1   21    1
 -0.0001362008979424733    2    1   21    2
 -0.0004071960775648577    2    1   21    3
 0.000162817635474802    2    1   21    4
 -0.000292258031708294    2    1   21    5
 -0.003141719943623846    2    1   21    6
 -0.002825495153498078    2    1   21    7
 -2.026375016795146e-05    2    1   21    8
 0.002018962936669214    2    1   21    9
 -0.001875888751719849    2    1   21   10
 -0.0006184394435593493    2    1   21   11
 0.000872337606205718    2    1   21   12
 0.0009254394147937887    2    1   21   13
 -2.168819409400931e-05    2    1   21   14
 9.271259100098771e-05    2    1   21   15
 -0.002218134544179625    2    1   21   16
 -0.0002691539826821889    2    1   21   17
 0.0006630860121265464    2    1   21   18
 0.001760606395590021    2    1   21   19
 0.0006306700653938994    2    1   21   20
 0.0009721526693137524    2    1   21   21
 -0.001073366607600943    2    1   22    1
 -0.0001189082173129523    2    1   22    2
 0.0004326961963811889    2    1   22    3
 -0.0006028154768522164    2    1   22    4
 0.001781786493429627    2    1   22    5
 6.35795619315211e-05    2    1   22    6
 -0.001450049329314132    2    1   22    7
 0.0001452716317002666    2    1   22    8
 0.000749153494509064    2    1   22    9
 0.0006679678800530333    2    1   22   10
 0.0005562796215259363    2    1   22   11
 0.0005976138794612327    2    1   22   12
 -0.003155536912147964    2    1   22   13
 -0.000162836239290385    2    1   22   14
 -0.0001609276648515176    2    1   22   15
 -0.0004002437179330783    2    1   22   16
 0.0004650155582638477    2    1   22   17
 -0.001223772983825309    2    1   22   18
 -0.006759447887465413    2    1   22   19
 0.0006473933636018506    2    1   22   20
 -0.0001817936079482012    2    1   22   21
 0.004723722025361452    2    1   22   22
 0.192557633137933    2    2    1    1
 0.03070897365327487    2    2    2    1
 0.2230285821334992    2    2    2    2
 -0.005657114610766907    2    2    3    1
 -0.01509618666351138    2    2    3    2
 0.1716704476128078    2    2    3    3
 0.01414428195601853    2    2    4    1
 0.0267334885001714    2    2    4    2
 -0.0193270404968232    2    2    4    3
 0.2099483159621807    2    2    4    4
 0.003872309829084471    2    2    5    1
 -0.007897631223394474    2    2    5    2
 0.002849205807769778    2    2    5    3
 -0.006296689274319919    2    2    5    4
 0.1892946340966301    2    2    5    5
 0.004893750843985773    2    2    6    1
 0.0007322747229459254    2    2    6    2
 -0.001534956867362109    2    2    6    3
 0.005244408130501796    2    2    6    4
 0.0139096997783454    2    2    6    5
 0.2029544165360292    2    2    6    6
 0.001342863556909693    2    2    7    1
 0.001344316435855952    2    2    7    2
 -0.002208626826699225    2    2    7    3
 4.143017786743622e-05    2    2    7    4
 0.008059679091601593    2    2    7    5
 0.01918506480356096    2    2    7    6
 0.1827233454984128    2    2    7    7
 0.003380935765353999    2    2    8    1
 0.006139637106645568    2    2    8    2
 0.0003890799017876395    2    2    8    3
 -0.00233824389384174    2    2    8    4
 0.02108169114012233    2    2    8    5
 0.01411600280001866    2    2    8    6
 0.01179367639009722    2    2    8    7
 0.1887250547411522    2    2    8    8
 -0.001573164039048701    2    2    9    1
 -0.0008773398605792179    2    2    9    2
 0.005142235523508319    2    2    9    3
 -0.0004878648830726297    2    2    9    4
 -0.005707940464810379    2    2    9    5
 -0.01134719680198494    2    2    9    6
 0.001528478097192734    2    2    9    7
 -0.004355456656046077    2    2    9    8
 0.1904518921297597    2    2    9    9
 0.001302751158586304    2    2   10    1
 0.002134927390998933    2    2   10    2
 -0.002999288169655363    2    2   10    3
 -0.0008427208629342366    2    2   10    4
 0.005880720916695344    2    2   10    5
 0.008811316320853305    2    2   10    6
 0.00970351204347465    2    2   10    7
 0.006505901159168157    2    2   10    8
 0.007879781947573525    2    2   10    9
 0.1703301724687282    2    2   10   10
 -0.001945177110157673    2    2   11    1
 0.003010577473109006    2    2   11    2
 0.01350756010293634    2    2   11    3
 0.002164031955066108    2    2   11    4
 -0.00126058746394068    2    2   11    5
 0.0009544349085452111    2    2   11    6
 0.007860675046807129    2    2   11    7
 0.002486163868186844    2    2   11    8
 0.01787140053818619    2    2   11    9
 0.005364112061808934    2    2   11   10
 0.1899599614106788    2    2   11   11
 -0.0003963787515116396    2    2   12    1
 0.002420325453391698    2    2   12    2
 0.006566435886527915    2    2   12    3
 0.002467925020794526    2    2   12    4
 0.0006245206759832581    2    2   12    5
 0.000179932403977339    2    2   12    6
 0.005758239767229664    2    2   12    7
 0.003277397397979113    2    2   12    8
 0.01223219172234807    2    2   12    9
 -0.0001640918963906945    2    2   12   10
 0.02715475837469968    2    2   12   11
 0.18994566120623    2    2   12   12
 -0.002178406145320483    2    2   13    1
 0.0005089646270471356    2    2   13    2
 -0.0007934804788874934    2    2   13    3
 0.001920389650295679    2    2   13    4
 0.0004792032613924665    2    2   13    5
 0.0004019445731581191    2    2   13    6
 -0.0003274902159012244    2    2   13    7
 -0.001514063900925259    2    2   13    8
 0.0005226328225266303    2    2   13    9
 -0.002065158639998095    2    2   13   10
 0.001131174576751208    2    2   13   11
 -0.0008935414548537821    2    2   13   12
 0.2163525165245141    2    2   13   13
 0.0002498398963651334    2    2   14    1
 -0.0003837464242477332    2    2   14    2
 -0.0003460264317983426    2    2   14    3
 -0.0003101480215279729    2    2   14    4
 -0.0005425188673897931    2    2   14    5
 -9.985593546565917e-05    2    2   14    6
 -0.0006344642348332588    2    2   14    7
 0.001096372607407145    2    2   14    8
 -0.001838253715016073    2    2   14    9
 -0.003116450819043656    2    2   14   10
 0.002754055865340665    2    2   14   11
 -0.002995642978905503    2    2   14   12
 8.338846683202991e-05    2    2   14   13
 0.2133686920318594    2    2   14   14
 0.001174392181405588    2    2   15    1
 0.0005957424389991253    2    2   15    2
 0.0002098451854356699    2    2   15    3
 -0.0004342691774678551    2    2   15    4
 0.002682530945710949    2    2   15    5
 0.002021177803006716    2    2   15    6
 0.001342528383162763    2    2   15    7
 -0.003553507459302818    2    2   15    8
 -1.88628811380303e-05    2    2   15    9
 -0.0009516520203004091    2    2   15   10
 0.001263725187640522    2    2   15   11
 -0.001182164596735728    2    2   15   12
 -0.00137802359634458    2    2   15   13
 -0.0001546199969243424    2    2   15   14
 0.2134038095431317    2    2   15   15
 0.002219885752406156    2    2   16    1
 0.002150541147112161    2    2   16    2
 -0.001032879272683125    2    2   16    3
 0.001050584451592833    2    2   16    4
 0.001697988207008374    2    2   16    5
 0.0008120629977836484    2    2   16    6
 -0.001046428047313759    2    2   16    7
 0.002656792125181886    2    2   16    8
 0.003298407005719629    2    2   16    9
 -0.003186950203453776    2    2   16   10
 -0.002081761740780495    2    2   16   11
 0.0008410776270616603    2    2   16   12
 0.0005738685424712928    2    2   16   13
 0.0001224221958299973    2    2   16   14
 0.0004345031139754364    2    2   16   15
 0.2152237339639478    2    2   16   16
 0.0001955147960142044    2    2   17    1
 0.0005738741937040642    2    2   17    2
 -0.001615692885623196    2    2   17    3
 -0.001125167709020344    2    2   17    4
 0.0001995797936535113    2    2   17    5
 -0.002772394317392552    2    2   17    6
 0.004567796025010409    2    2   17    7
 0.0001060641267159692    2    2   17    8
 -0.002361912336321157    2    2   17    9
 -0.002468316079705969    2    2   17   10
 0.0002769281666181047    2    2   17   11
 0.002317429878611156    2    2   17   12
 0.0002766827398451492    2    2   17   13
 -0.001075849694435824    2    2   17   14
 0.0001188192876478667    2    2   17   15
 0.0001963939142516466    2    2   17   16
 0.2144796907922733    2    2   17   17
 -0.0002720640941269282    2    2   18    1
 -0.0005398796632843766    2    2   18    2
 -0.0004694693008579817    2    2   18    3
 -0.0001497454784436195    2    2   18    4
 -0.0003154673948018613    2    2   18    5
 -8.90910590257537e-05    2    2   18    6
 0.0007836729952861317    2    2   18    7
 6.349511063666651e-05    2    2   18    8
 -0.001329255048169637    2    2   18    9
 -0.002607679729784375    2    2   18   10
 0.002880918214553331    2    2   18   11
 -0.002433863794525117    2    2   18   12
 -0.0003501929711330994    2    2   18   13
 -0.003816084563522215    2    2   18   14
 -0.001020798602260531    2    2   18   15
 0.0005579151644174949    2    2   18   16
 -0.001256961032831081    2    2   18   17
 0.2096174719503691    2    2   18   18
 -0.003117625053640322    2    2   19    1
 -0.001602659135758864    2    2   19    2
 -0.0009322721766862253    2    2   19    3
 0.00241379420738663    2    2   19    4
 0.0001022092912517008    2    2   19    5
 0.0006808162009708512    2    2   19    6
 -0.0005201782999916514    2    2   19    7
 -0.003691748623463165    2    2   19    8
 0.001119872709150824    2    2   19    9
 -0.002013373965623532    2    2   19   10
 0.0006845808236224465    2    2   19   11
 -0.0003097347367654741    2    2   19   12
 -0.001567742790462305    2    2   19   13
 0.0007679947460646492    2    2   19   14
 -0.00244552056677936    2    2   19   15
 0.0005204445809962102    2    2   19   16
 0.0006211514887820503    2    2   19   17
 0.0005009895731419025    2    2   19   18
 0.2143604901028971    2    2   19   19
 -3.294996265815288e-05    2    2   20    1
 0.000600302944492974    2    2   20    2
 -0.0009610145795067179    2    2   20    3
 5.470315191771821e-05    2    2   20    4
 -0.0001124181305242629    2    2   20    5