 &FCI NORB=   5,NELEC= 7,MS2=3,
  ORBSYM=1,1,1,1,1,
  ISYM=1,
 &END
 0.9378951553967777    1    1    1    1
 0.0002549184281561615    1    1    2    1
 0.8573016458336099    1    1    2    2
 1.494182952972972e-05    1    1    3    1
 0.0004156671689047056    1    1    3    2
 0.891605740239494    1    1    3    3
 -4.253373830523607e-05    1    1    4    1
 -0.0009788382701241881    1    1    4    2
 0.004415800650200322    1    1    4    3
 0.8658171268239968    1    1    4    4
 -0.00120136771935668    1    1    5    1
 0.0008465500822543506    1    1    5    2
 -0.01015773326153885    1    1    5    3
 -0.000990910294063084    1    1    5    4
 0.8806737251108487    1    1    5    5
 0.0002549184281561007    2    1    1    1
 0.04123559596333421    2    1    2    1
 0.0001821488657271142    2    1    2    2
 -0.0001291138400174231    2    1    3    1
 -0.0001091352556513144    2    1    3    2
 -0.003337444427872732    2    1    3    3
 0.0005503912928542434    2    1    4    1
 0.001437028538485912    2    1    4    2
 0.002619223944716511    2    1    4    3
 -0.01400987102369689    2    1    4    4
 -0.0004606664310847972    2    1    5    1
 0.0002507443393397809    2    1    5    2
 0.00739967507032328    2    1    5    3
 0.005077660967675344    2    1    5    4
 0.0177898938040955    2    1    5    5
 0.8573016458336095    2    2    1    1
 0.0001821488657271228    2    2    2    1
 0.9419540571544106    2    2    2    2
 0.0001765705407930502    2    2    3    1
 6.258877308839582e-05    2    2    3    2
 0.8625203252142427    2    2    3    3
 -0.003037451369277774    2    2    4    1
 3.087796338933713e-05    2    2    4    2
 -0.006651406836763882    2    2    4    3
 0.8961063726690108    2    2    4    4
 -0.001800906045181669    2    2    5    1
 -0.0001102235009304738    2    2    5    2
 0.009023891142541776    2    2    5    3
 0.0001842428924337461    2    2    5    4
 0.8857462866600539    2    2    5    5
 1.494182952986693e-05    3    1    1    1
 -0.0001291138400174098    3    1    2    1
 0.000176570540792868    3    1    2    2
 0.02342333194072783    3    1    3    1
 0.001590323592259964    3    1    3    2
 -4.42952688145327e-05    3    1    3    3
 -0.002956898628604237    3    1    4    1
 -0.001975587229973068    3    1    4    2
 -0.006473082591647882    3    1    4    3
 -0.002701661843967855    3    1    4    4
 0.005294690514872476    3    1    5    1
 -0.004687794797440848    3    1    5    2
 -0.002258830555970703    3    1    5    3
 -0.0002133748762833953    3    1    5    4
 0.002521194027793657    3    1    5    5
 0.0004156671689047533    3    2    1    1
 -0.0001091352556512704    3    2    2    1
 6.258877308828735e-05    3    2    2    2
 0.00159032359225997    3    2    3    1
 0.03903463909550414    3    2    3    2
 3.467768334517543e-05    3    2    3    3
 -0.0007807066669035741    3    2    4    1
 0.00257944765783384    3    2    4    2
 -0.001806177783825418    3    2    4    3
 -0.004526031935672365    3    2    4    4
 -0.00259855576096275    3    2    5    1
 -0.004292381127010541    3    2    5    2
 0.002498409593637648    3    2    5    3
 -0.0171180663623912    3    2    5    4
 0.004373376485763567    3    2    5    5
 0.8916057402394942    3    3    1    1
 -0.003337444427872739    3    3    2    1
 0.8625203252142425    3    3    2    2
 -4.429526881436547e-05    3    3    3    1
 3.467768334552356e-05    3    3    3    2
 0.9392476715309334    3    3    3    3
 0.01297508610431024    3    3    4    1
 0.003596829623186575    3    3    4    2
 -0.001458280628047073    3    3    4    3
 0.8719089815068124    3    3    4    4
 0.003225987385347934    3    3    5    1
 -0.005222263060967788    3    3    5    2
 0.0003824669632785452    3    3    5    3
 0.000497874822594481    3    3    5    4
 0.8713592709614777    3    3    5    5
 -4.25337383054155e-05    4    1    1    1
 0.0005503912928542286    4    1    2    1
 -0.003037451369277664    4    1    2    2
 -0.002956898628604247    4    1    3    1
 -0.0007807066669035717    4    1    3    2
 0.01297508610431049    4    1    3    3
 0.03778510370229969    4    1    4    1
 0.007103774884081258    4    1    4    2
 0.001357325682251597    4    1    4    3
 -1.878455871618937e-05    4    1    4    4
 0.0004528851583837414    4    1    5    1
 -0.002844514718878522    4    1    5    2
 0.01197036105686761    4    1    5    3
 0.001789833021041058    4    1    5    4
 -0.01024818590230125    4    1    5    5
 -0.0009788382701242605    4    2    1    1
 0.001437028538485898    4    2    2    1
 3.087796338933246e-05    4    2    2    2
 -0.001975587229973051    4    2    3    1
 0.002579447657833859    4    2    3    2
 0.003596829623186732    4    2    3    3
 0.007103774884081254    4    2    4    1
 0.02369912801709679    4    2    4    2
 0.002273217339303302    4    2    4    3
 9.118059342825459e-05    4    2    4    4
 -0.002192990151252213    4    2    5    1
 -0.0001523644411614832    4    2    5    2
 0.006339206284321997    4    2    5    3
 -0.002087295417161277    4    2    5    4
 -0.002527842944591651    4    2    5    5
 0.004415800650200597    4    3    1    1
 0.002619223944716509    4    3    2    1
 -0.006651406836764013    4    3    2    2
 -0.006473082591647863    4    3    3    1
 -0.001806177783825403    4    3    3    2
 -0.001458280628046891    4    3    3    3
 0.001357325682251634    4    3    4    1
 0.002273217339303308    4    3    4    2
 0.03529285502002706    4    3    4    3
 -0.001455590058246688    4    3    4    4
 -0.0116294735296316    4    3    5    1
 0.01079432065836001    4    3    5    2
 -0.0003038279186798838    4    3    5    3
 -0.0009482287596264602    4    3    5    4
 -0.001777613176378961    4    3    5    5
 0.8658171268239973    4    4    1    1
 -0.0140098710236968    4    4    2    1
 0.8961063726690109    4    4    2    2
 -0.002701661843967927    4    4    3    1
 -0.00452603193567242    4    4    3    2
 0.8719089815068131    4    4    3    3
 -1.878455871610695e-05    4    4    4    1
 9.118059342827386e-05    4    4    4    2
 -0.001455590058246751    4    4    4    3
 0.9460090980875117    4    4    4    4
 -0.004795389106226178    4    4    5    1
 0.004026724552270711    4    4    5    2
 0.002419478763900709    4    4    5    3
 -0.000102299637479264    4    4    5    4
 0.8722241994753623    4    4    5    5
 -0.001201367719356842    5    1    1    1
 -0.000460666431084846    5    1    2    1
 -0.001800906045181471    5    1    2    2
 0.00529469051487247    5    1    3    1
 -0.002598555760962801    5    1    3    2
 0.003225987385347696    5    1    3    3
 0.0004528851583837396    5    1    4    1
 -0.002192990151252212    5    1    4    2
 -0.01162947352963164    5    1    4    3
 -0.004795389106226127    5    1    4    4
 0.03124417230563382    5    1    5    1
 -0.00883744487153367    5    1    5    2
 -0.001261673471635271    5    1    5    3
 0.005100479083517787    5    1    5    4
 -0.00122015286708657    5    1    5    5
 0.0008465500822545014    5    2    1    1
 0.0002507443393397448    5    2    2    1
 -0.0001102235009304378    5    2    2    2
 -0.004687794797440847    5    2    3    1
 -0.004292381127010563    5    2    3    2
 -0.005222263060967745    5    2    3    3
 -0.002844514718878491    5    2    4    1
 -0.0001523644411614655    5    2    4    2
 0.01079432065836004    5    2    4    3
 0.004026724552270529    5    2    4    4
 -0.008837444871533663    5    2    5    1
 0.0296171390107338    5    2    5    2
 -0.002128156868923915    5    2    5    3
 0.001278117746301836    5    2    5    4
 -0.0001583318267224438    5    2    5    5
 -0.01015773326153902    5    3    1    1
 0.007399675070323289    5    3    2    1
 0.009023891142541698    5    3    2    2
 -0.002258830555970691    5    3    3    1
 0.002498409593637651    5    3    3    2
 0.0003824669632785751    5    3    3    3
 0.0119703610568676    5    3    4    1
 0.006339206284321977    5    3    4    2
 -0.0003038279186799113    5    3    4    3
 0.002419478763900722    5    3    4    4
 -0.001261673471635263    5    3    5    1
 -0.002128156868923917    5    3    5    2
 0.03612498560077465    5    3    5    3
 0.0001368895799601595    5    3    5    4
 0.0005036301470680172    5    3    5    5
 -0.0009909102940629589    5    4    1    1
 0.00507766096767535    5    4    2    1
 0.0001842428924336981    5    4    2    2
 -0.0002133748762834129    5    4    3    1
 -0.01711806636239122    5    4    3    2
 0.0004978748225943857    5    4    3    3
 0.00178983302104109    5    4    4    1
 -0.002087295417161267    5    4    4    2
 -0.0009482287596264302    5    4    4    3
 -0.0001022996374791903    5    4    4    4
 0.005100479083517855    5    4    5    1
 0.001278117746301839    5    4    5    2
 0.0001368895799601573    5    4    5    3
 0.03759853272483715    5    4    5    4
 -0.0001037514765749046    5    4    5    5
 0.8806737251108486    5    5    1    1
 0.01778989380409551    5    5    2    1
 0.8857462866600541    5    5    2    2
 0.002521194027793468    5    5    3    1
 0.004373376485763547    5    5    3    2
 0.871359270961477    5    5    3    3
 -0.01024818590230122    5    5    4    1
 -0.002527842944591577    5    5    4    2
 -0.00177761317637886    5    5    4    3
 0.8722241994753619    5    5    4    4
 -0.001220152867086627    5    5    5    1
 -0.0001583318267224972    5    5    5    2
 0.0005036301470680571    5    5    5    3
 -0.0001037514765749037    5    5    5    4
 0.9489518775474675    5    5    5    5
 -5.979968651768703    1    1  0  0
 -0.0008428515447528109    2    1  0  0
 -5.997128803007993    2    2  0  0
 -0.0002299867438072494    3    1  0  0
 -0.0008613939262330734    3    2  0  0
 -5.98300528997474    3    3  0  0
 0.004484515391669684    4    1  0  0
 0.00118996782878738    4    2  0  0
 0.007406010455071168    4    3  0  0
 -5.973200728677982    4    4  0  0
 0.007756501943270999    5    1  0  0
 -0.0005848800115158674    5    2  0  0
 -0.0001298416594267035    5    3  0  0
 0.00131796824827395    5    4  0  0
 -5.981508041120544    5    5  0  0
 -2649.483785961129  0  0  0  0
