 &FCI NORB=   5,NELEC= 7,MS2=3,
  ORBSYM=1,1,1,1,1,
  ISYM=1,
 &END
 0.9365903205527409    1    1    1    1
 0.0006700832262856438    1    1    2    1
 0.8532440676702701    1    1    2    2
 0.0003241026885708531    1    1    3    1
 -1.537316345268237e-05    1    1    3    2
 0.8588383988853078    1    1    3    3
 0.0003778477245892306    1    1    4    1
 9.203995814192552e-05    1    1    4    2
 0.003529018699768236    1    1    4    3
 0.8457943657649053    1    1    4    4
 -0.001192672666255378    1    1    5    1
 -0.0006398364854439874    1    1    5    2
 0.001414662401790121    1    1    5    3
 0.0005943372220068027    1    1    5    4
 0.8846051324842286    1    1    5    5
 0.0006700832262856765    2    1    1    1
 0.04122858318062303    2    1    2    1
 0.0007759527410268529    2    1    2    2
 0.0002862288887120671    2    1    3    1
 0.0002758479279639923    2    1    3    2
 -0.01794241106334151    2    1    3    3
 9.786396368408453e-05    2    1    4    1
 9.522557797533548e-05    2    1    4    2
 -0.00781639350134538    2    1    4    3
 0.01048657031451658    2    1    4    4
 0.0001559762147625802    2    1    5    1
 -0.0001264661897022531    2    1    5    2
 0.001647453928563666    2    1    5    3
 5.502933390611115e-06    2    1    5    4
 0.009459491251994457    2    1    5    5
 0.8532440676702693    2    2    1    1
 0.0007759527410265654    2    2    2    1
 0.9344907379047805    2    2    2    2
 -0.0002899978009774861    2    2    3    1
 0.0006070911192499038    2    2    3    2
 0.863010401405335    2    2    3    3
 0.0002133598343932152    2    2    4    1
 0.0002829596264599868    2    2    4    2
 -0.003641648208109671    2    2    4    3
 0.8773487381068091    2    2    4    4
 -0.0008297262262200861    2    2    5    1
 -0.0002879675530201105    2    2    5    2
 -0.0002582526300286634    2    2    5    3
 -0.001696446030719792    2    2    5    4
 0.8463188647272873    2    2    5    5
 0.0003241026885707387    3    1    1    1
 0.0002862288887121081    3    1    2    1
 -0.0002899978009775092    3    1    2    2
 0.03130857944889152    3    1    3    1
 0.009494010123436125    3    1    3    2
 0.000369985566560943    3    1    3    3
 -0.001890639584098019    3    1    4    1
 0.003784515477244082    3    1    4    2
 0.0008387778617842189    3    1    4    3
 0.001450289093307305    3    1    4    4
 -0.0004507406081518678    3    1    5    1
 -0.0009169400840702205    3    1    5    2
 0.001021854666680397    3    1    5    3
 0.0134387005352207    3    1    5    4
 -0.0003392948256977405    3    1    5    5
 -1.537316345264701e-05    3    2    1    1
 0.0002758479279639786    3    2    2    1
 0.0006070911192500002    3    2    2    2
 0.009494010123436071    3    2    3    1
 0.02858984948968372    3    2    3    2
 0.0006525420773340348    3    2    3    3
 0.00412080177006992    3    2    4    1
 0.001732244613600182    3    2    4    2
 -0.000416361091399729    3    2    4    3
 0.001507121307474901    3    2    4    4
 -0.0007578017475532205    3    2    5    1
 0.0004207340680061104    3    2    5    2
 -0.004273391662047785    3    2    5    3
 0.01101813680500378    3    2    5    4
 7.298196239854624e-05    3    2    5    5
 0.8588383988853089    3    3    1    1
 -0.01794241106334155    3    3    2    1
 0.8630104014053364    3    3    2    2
 0.0003699855665609156    3    3    3    1
 0.0006525420773342489    3    3    3    2
 0.9058987757595179    3    3    3    3
 -0.001261047070941206    3    3    4    1
 0.001092740041432123    3    3    4    2
 -0.0005827336339163889    3    3    4    3
 0.8382392721231932    3    3    4    4
 -0.0030092901622134    3    3    5    1
 0.008290050956810322    3    3    5    2
 0.0006008245721623499    3    3    5    3
 0.0005253371479313307    3    3    5    4
 0.8421684110601676    3    3    5    5
 0.0003778477245891036    4    1    1    1
 9.786396368407711e-05    4    1    2    1
 0.0002133598343931387    4    1    2    2
 -0.001890639584098047    4    1    3    1
 0.004120801770069898    4    1    3    2
 -0.001261047070941206    4    1    3    3
 0.03820998004738432    4    1    4    1
 -0.00495932185832152    4    1    4    2
 -0.0005935271465943553    4    1    4    3
 0.0003891990813475348    4    1    4    4
 -0.0004255942385867469    4    1    5    1
 0.0002720836969894433    4    1    5    2
 -0.01677590587908102    4    1    5    3
 -0.0009666736210027835    4    1    5    4
 0.00208367123350228    4    1    5    5
 9.20399581418339e-05    4    2    1    1
 9.522557797531576e-05    4    2    2    1
 0.0002829596264597724    4    2    2    2
 0.003784515477244038    4    2    3    1
 0.001732244613600201    4    2    3    2
 0.001092740041431778    4    2    3    3
 -0.004959321858321513    4    2    4    1
 0.02160420340494165    4    2    4    2
 -0.0004863236241531669    4    2    4    3
 0.0002735330563468636    4    2    4    4
 -0.0002674067002755992    4    2    5    1
 0.0007435538646238776    4    2    5    2
 0.004234145058982797    4    2    5    3
 0.004070956633017295    4    2    5    4
 -0.0004578782027641414    4    2    5    5
 0.003529018699768556    4    3    1    1
 -0.007816393501345324    4    3    2    1
 -0.003641648208109503    4    3    2    2
 0.0008387778617842882    4    3    3    1
 -0.0004163610913996885    4    3    3    2
 -0.0005827336339162645    4    3    3    3
 -0.0005935271465943756    4    3    4    1
 -0.0004863236241531583    4    3    4    2
 0.03488954352567979    4    3    4    3
 0.0001291606541760877    4    3    4    4
 0.003342421930280601    4    3    5    1
 -0.01537469595434002    4    3    5    2
 -0.0003356409061669913    4    3    5    3
 9.803221829134501e-05    4    3    5    4
 -0.0004673638428532265    4    3    5    5
 0.8457943657649062    4    4    1    1
 0.01048657031451678    4    4    2    1
 0.8773487381068095    4    4    2    2
 0.001450289093307522    4    4    3    1
 0.001507121307475113    4    4    3    2
 0.8382392721231938    4    4    3    3
 0.0003891990813475258    4    4    4    1
 0.0002735330563468849    4    4    4    2
 0.0001291606541761133    4    4    4    3
 0.9071294048611966    4    4    4    4
 0.0009610466372821914    4    4    5    1
 -0.008427760382312657    4    4    5    2
 0.0003059984754107351    4    4    5    3
 -0.0001843074229407569    4    4    5    4
 0.8423335201763306    4    4    5    5
 -0.00119267266625541    5    1    1    1
 0.0001559762147625739    5    1    2    1
 -0.0008297262262200207    5    1    2    2
 -0.0004507406081518814    5    1    3    1
 -0.0007578017475531964    5    1    3    2
 -0.003009290162213412    5    1    3    3
 -0.0004255942385867356    5    1    4    1
 -0.0002674067002755905    5    1    4    2
 0.003342421930280591    5    1    4    3
 0.0009610466372820379    5    1    4    4
 0.02052294551292365    5    1    5    1
 -0.004485182330369992    5    1    5    2
 0.0003045260964491054    5    1    5    3
 -0.0008786333518545385    5    1    5    4
 -0.001173823520833707    5    1    5    5
 -0.0006398364854437902    5    2    1    1
 -0.0001264661897022343    5    2    2    1
 -0.0002879675530199381    5    2    2    2
 -0.0009169400840702411    5    2    3    1
 0.0004207340680060858    5    2    3    2
 0.008290050956810567    5    2    3    3
 0.000272083696989447    5    2    4    1
 0.0007435538646239186    5    2    4    2
 -0.01537469595434006    5    2    4    3
 -0.00842776038231257    5    2    4    4
 -0.004485182330370002    5    2    5    1
 0.03961576841749515    5    2    5    2
 0.0002361979374623049    5    2    5    3
 0.0003535171919426571    5    2    5    4
 -0.0002665224589609823    5    2    5    5
 0.001414662401790237    5    3    1    1
 0.00164745392856366    5    3    2    1
 -0.0002582526300286603    5    3    2    2
 0.00102185466668038    5    3    3    1
 -0.004273391662047767    5    3    3    2
 0.0006008245721624566    5    3    3    3
 -0.01677590587908102    5    3    4    1
 0.004234145058982812    5    3    4    2
 -0.0003356409061670072    5    3    4    3
 0.0003059984754106805    5    3    4    4
 0.0003045260964491033    5    3    5    1
 0.0002361979374623125    5    3    5    2
 0.03515673895771051    5    3    5    3
 0.0001357426616499481    5    3    5    4
 0.0004633128373595878    5    3    5    5
 0.0005943372220071132    5    4    1    1
 5.502933390627269e-06    5    4    2    1
 -0.001696446030719807    5    4    2    2
 0.01343870053522068    5    4    3    1
 0.01101813680500377    5    4    3    2
 0.0005253371479315659    5    4    3    3
 -0.0009666736210027717    5    4    4    1
 0.004070956633017314    5    4    4    2
 9.803221829132715e-05    5    4    4    3
 -0.0001843074229406926    5    4    4    4
 -0.0008786333518545414    5    4    5    1
 0.0003535171919426794    5    4    5    2
 0.0001357426616499499    5    4    5    3
 0.03531260606545435    5    4    5    4
 -0.0003079923454130897    5    4    5    5
 0.884605132484229    5    5    1    1
 0.009459491251994516    5    5    2    1
 0.8463188647272879    5    5    2    2
 -0.0003392948256976193    5    5    3    1
 7.298196239858191e-05    5    5    3    2
 0.8421684110601668    5    5    3    3
 0.002083671233502223    5    5    4    1
 -0.0004578782027639976    5    5    4    2
 -0.0004673638428531218    5    5    4    3
 0.8423335201763305    5    5    4    4
 -0.001173823520833738    5    5    5    1
 -0.0002665224589608783    5    5    5    2
 0.0004633128373596393    5    5    5    3
 -0.0003079923454129856    5    5    5    4
 0.9148213235108117    5    5    5    5
 -5.458313922416533    1    1  0  0
 -0.004196575738580779    2    1  0  0
 -5.461825532926831    2    2  0  0
 -0.001050034570983485    3    1  0  0
 -0.002639917983197069    3    2  0  0
 -5.361994225492158    3    3  0  0
 -0.002017642034851167    4    1  0  0
 -0.001299061415009964    4    2  0  0
 0.0006347837835155118    4    3  0  0
 -5.365565972818336    4    4  0  0
 0.005992441518649058    5    1  0  0
 0.002111106655569431    5    2  0  0
 -0.003951193690624495    5    3  0  0
 0.00224740710501084    5    4  0  0
 -5.396818877201526    5    5  0  0
 -3884.361226767021  0  0  0  0
