 &FCI NORB=  10,NELEC= 7,MS2=3,
  ORBSYM=1,1,1,1,1,1,1,1,1,1,
  ISYM=1,
 &END
 0.9382397037565668    1    1    1    1
 0.0002880286493357263    1    1    2    1
 0.8578375359159173    1    1    2    2
 0.0002702000053144388    1    1    3    1
 0.0009076792203910212    1    1    3    2
 0.8571798295142371    1    1    3    3
 0.0001828936387539711    1    1    4    1
 -0.0001089310125066967    1    1    4    2
 -0.0003780933677336196    1    1    4    3
 0.8782992838985118    1    1    4    4
 0.0002821874918603392    1    1    5    1
 0.0002079622235551883    1    1    5    2
 0.002025342502851209    1    1    5    3
 0.008926716392708598    1    1    5    4
 0.8818654205465479    1    1    5    5
 -0.1057949655975183    1    1    6    1
 -0.2142317768479612    1    1    6    2
 -0.03605979185760377    1    1    6    3
 0.02281668758987631    1    1    6    4
 0.001479767932337671    1    1    6    5
 0.7130218085113869    1    1    6    6
 -0.2476095383064688    1    1    7    1
 0.0975774887581413    1    1    7    2
 -0.008878646431587315    1    1    7    3
 -0.01227999151417415    1    1    7    4
 0.000825023302235235    1    1    7    5
 0.01971565801129896    1    1    7    6
 0.73895218533547    1    1    7    7
 -0.009112546214455747    1    1    8    1
 -0.0008073447198762906    1    1    8    2
 0.06412666807987066    1    1    8    3
 0.08175869162942505    1    1    8    4
 -0.2220085922051902    1    1    8    5
 0.0006404520328508813    1    1    8    6
 0.001774583374369717    1    1    8    7
 0.714013870873986    1    1    8    8
 -0.001200873190792134    1    1    9    1
 -0.02852529150794277    1    1    9    2
 0.02879443659789104    1    1    9    3
 -0.2317942917372715    1    1    9    4
 -0.0824626141539555    1    1    9    5
 -0.001650620313846428    1    1    9    6
 0.002238274376304489    1    1    9    7
 0.003472962792645724    1    1    9    8
 0.7204312601529526    1    1    9    9
 0.02430416356177209    1    1   10    1
 0.02686579534652139    1    1   10    2
 -0.2253732447997326    1    1   10    3
 -0.00920615492330182    1    1   10    4
 -0.07549979882873928    1    1   10    5
 -0.002172549646374224    1    1   10    6
 -0.003732487329206261    1    1   10    7
 0.007005358773499762    1    1   10    8
 0.0049464196070605    1    1   10    9
 0.7003795158761319    1    1   10   10
 0.0002880286493357951    2    1    1    1
 0.04138162611933382    2    1    2    1
 0.000171930755941918    2    1    2    2
 -5.088973444114431e-06    2    1    3    1
 0.0002527049532102692    2    1    3    2
 0.01068977433797048    2    1    3    3
 -0.0002434773953082084    2    1    4    1
 9.234759826214504e-05    2    1    4    2
 0.002051078942149061    2    1    4    3
 -0.008989742739886382    2    1    4    4
 -0.0003098840815464555    2    1    5    1
 3.722477626597008e-05    2    1    5    2
 -0.001649818288554046    2    1    5    3
 0.01510756361768923    2    1    5    4
 -0.001199293469099318    2    1    5    5
 -0.0124245841963029    2    1    6    1
 -0.006710461185328587    2    1    6    2
 -0.0007123956704028434    2    1    6    3
 -0.0002742204785173176    2    1    6    4
 0.0005903084342472868    2    1    6    5
 0.01938951804839111    2    1    6    6
 0.005389568826599731    2    1    7    1
 -0.01301940593418769    2    1    7    2
 -0.0001836238924301624    2    1    7    3
 0.0002463649920983586    2    1    7    4
 -6.856875806825223e-05    2    1    7    5
 0.01844242029476761    2    1    7    6
 -0.01965535087110341    2    1    7    7
 -2.590129268845744e-05    2    1    8    1
 -0.0005057842264221913    2    1    8    2
 0.001970712948880521    2    1    8    3
 -0.005214500813561457    2    1    8    4
 0.001451405609401736    2    1    8    5
 -0.0007546669990109306    2    1    8    6
 5.447180307913955e-05    2    1    8    7
 -0.006773660406550044    2    1    8    8
 -0.001582143198606462    2    1    9    1
 -0.0001906103146505183    2    1    9    2
 6.961061430827293e-05    2    1    9    3
 0.0007789510334793207    2    1    9    4
 -0.004911438293107685    2    1    9    5
 0.001604335252024647    2    1    9    6
 0.002489815674893221    2    1    9    7
 0.00961167285981066    2    1    9    8
 0.0003819957192747155    2    1    9    9
 0.001630462309858519    2    1   10    1
 0.001414415374070497    2    1   10    2
 -0.004098530366278311    2    1   10    3
 -0.002157873020312273    2    1   10    4
 0.0003434548042032984    2    1   10    5
 -0.002751545306023643    2    1   10    6
 -0.001607113923830695    2    1   10    7
 -0.004155935246047666    2    1   10    8
 0.002597453346114409    2    1   10    9
 0.006226080557296422    2    1   10   10
 0.8578375359159174    2    2    1    1
 0.0001719307559419891    2    2    2    1
 0.9427127763337459    2    2    2    2
 -0.000140103226077746    2    2    3    1
 0.0009545484784129008    2    2    3    2
 0.8951737958386158    2    2    3    3
 -7.462774678554837e-06    2    2    4    1
 -0.0005808103262425293    2    2    4    2
 -0.0003164716923082594    2    2    4    3
 0.8663396206952572    2    2    4    4
 0.0001241857281298771    2    2    5    1
 -0.0003772567563240298    2    2    5    2
 -0.001559702595593647    2    2    5    3
 -0.009211429384316893    2    2    5    4
 0.8618546857277954    2    2    5    5
 -0.0961921465175052    2    2    6    1
 -0.241023058449336    2    2    6    2
 -0.03801519097816984    2    2    6    3
 0.02268753975424475    2    2    6    4
 0.001350066741482098    2    2    6    5
 0.7503617754289342    2    2    6    6
 -0.2216065411557822    2    2    7    1
 0.1097656234390685    2    2    7    2
 -0.009238714375437163    2    2    7    3
 -0.01211600082253814    2    2    7    4
 0.001060894080179995    2    2    7    5
 -0.02012924707889778    2    2    7    6
 0.7058086762957718    2    2    7    7
 -0.008206500196455892    2    2    8    1
 -0.000847224100693022    2    2    8    2
 0.06917343553358005    2    2    8    3
 0.08605553362358713    2    2    8    4
 -0.2189001864518044    2    2    8    5
 -0.0008165473789409032    2    2    8    6
 -0.000434603031940431    2    2    8    7
 0.7125089357692301    2    2    8    8
 -0.001205694580194517    2    2    9    1
 -0.03198007737891873    2    2    9    2
 0.03095207633736708    2    2    9    3
 -0.2265843208013706    2    2    9    4
 -0.07489169155392432    2    2    9    5
 0.004243436519573682    2    2    9    6
 -0.001340414442134363    2    2    9    7
 -0.005725075928871883    2    2    9    8
 0.7054898479842523    2    2    9    9
 0.02209241833965891    2    2   10    1
 0.03040860424660913    2    2   10    2
 -0.2386750901672459    2    2   10    3
 -0.007342775201022759    2    2   10    4
 -0.07225926252978575    2    2   10    5
 -0.002137786500417663    2    2   10    6
 0.003539937991763198    2    2   10    7
 -0.003963970117532595    2    2   10    8
 -0.004450412984240808    2    2   10    9
 0.7203071926322048    2    2   10   10
 0.0002702000053143163    3    1    1    1
 -5.08897344407133e-06    3    1    2    1
 -0.0001401032260774707    3    1    2    2
 0.03958046885858706    3    1    3    1
 -0.005347780742196751    3    1    3    2
 0.0003290677069484375    3    1    3    3
 0.0001401998692212711    3    1    4    1
 -0.001252165019869844    3    1    4    2
 -0.0001073242132047092    3    1    4    3
 -0.01660171358705569    3    1    4    4
 -0.0009833738731035492    3    1    5    1
 0.001020680488645354    3    1    5    2
 0.0006913496988047045    3    1    5    3
 -0.004148768131224339    3    1    5    4
 0.01749783560729492    3    1    5    5
 -0.001985969073543536    3    1    6    1
 8.820046981785003e-05    3    1    6    2
 -0.003920432377916207    3    1    6    3
 -0.0001222485024325944    3    1    6    4
 -0.0003230054627181324    3    1    6    5
 0.002047135057832811    3    1    6    6
 -0.0007033781498246376    3    1    7    1
 6.572515141822048e-05    3    1    7    2
 -0.01365324392770053    3    1    7    3
 1.065922904918444e-05    3    1    7    4
 0.0005346729806610224    3    1    7    5
 0.004187149067371031    3    1    7    6
 0.002018174017153924    3    1    7    7
 0.003668915231550733    3    1    8    1
 -0.0007550401464420452    3    1    8    2
 -0.0005950465419738025    3    1    8    3
 -0.0006158607277522477    3    1    8    4
 -0.005797772671743257    3    1    8    5
 -0.001295095208860457    3    1    8    6
 -0.007836237864783591    3    1    8    7
 0.009295581274921187    3    1    8    8
 0.001628066889973911    3    1    9    1
 9.031424507687582e-05    3    1    9    2
 0.0001653560339006392    3    1    9    3
 0.005594299605123342    3    1    9    4
 -0.0006753831646969027    3    1    9    5
 -0.0003673816460933516    3    1    9    6
 -0.003566013048297084    3    1    9    7
 0.00501307219749531    3    1    9    8
 -0.01052129191837395    3    1    9    9
 -0.01190501607296084    3    1   10    1
 0.001211884116288708    3    1   10    2
 0.00076422131513915    3    1   10    3
 0.0005983405264003159    3    1   10    4
 -0.001943209332052049    3    1   10    5
 0.006471790454517044    3    1   10    6
 0.0236533586142099    3    1   10    7
 0.005269243683425389    3    1   10    8
 0.0001073716909583175    3    1   10    9
 -0.002224467348460342    3    1   10   10
 0.000907679220391196    3    2    1    1
 0.0002527049532102809    3    2    2    1
 0.0009545484784129249    3    2    2    2
 -0.005347780742196715    3    2    3    1
 0.02127271965602871    3    2    3    2
 0.0009461036603527476    3    2    3    3
 -0.0008423666669181132    3    2    4    1
 0.0001137852362739261    3    2    4    2
 -0.001107851473855126    3    2    4    3
 0.00524128966270221    3    2    4    4
 0.0006537272095453793    3    2    5    1
 0.0008469529947680137    3    2    5    2
 -0.0006324019624363633    3    2    5    3
 0.001387648851951528    3    2    5    4
 -0.003836136876943437    3    2    5    5
 -6.713532610178493e-05    3    2    6    1
 -0.001460922317958844    3    2    6    2
 -0.006391420318986344    3    2    6    3
 0.0002927491902409283    3    2    6    4
 -0.000267209163216196    3    2    6    5
 0.004042062442933833    3    2    6    6
 -0.0002842261423355607    3    2    7    1
 -0.0001934931063626276    3    2    7    2
 0.004827839222391698    3    2    7    3
 0.0002166784862221117    3    2    7    4
 -0.0001021979764574862    3    2    7    5
 -0.0008305384013473718    3    2    7    6
 -0.0002398403162573769    3    2    7    7
 -0.0006525288163419798    3    2    8    1
 0.001794597866877804    3    2    8    2
 0.0001663080555691854    3    2    8    3
 7.24799534994178e-05    3    2    8    4
 0.001096093440596681    3    2    8    5
 -0.002152983454893549    3    2    8    6
 0.002755221847284081    3    2    8    7
 -0.002094787514303181    3    2    8    8
 -5.66575943251029e-06    3    2    9    1
 0.0007358553225431516    3    2    9    2
 -0.0004478433277649354    3    2    9    3
 -0.00191693504377121    3    2    9    4
 -0.0001425208033153229    3    2    9    5
 -0.001376796688062015    3    2    9    6
 0.0008242266954992348    3    2    9    7
 -0.001327054164343446    3    2    9    8
 0.003321421228290575    3    2    9    9
 0.001339354784168297    3    2   10    1
 -0.007076876362548975    3    2   10    2
 0.0004487082993323836    3    2   10    3
 0.0001833726799197338    3    2   10    4
 0.0005780278720889592    3    2   10    5
 0.009893321717971065    3    2   10    6
 -0.008378855576355999    3    2   10    7
 -0.001004382950217949    3    2   10    8
 0.0008957230178699187    3    2   10    9
 -0.002153924592071901    3    2   10   10
 0.8571798295142377    3    3    1    1
 0.01068977433797041    3    3    2    1
 0.8951737958386167    3    3    2    2
 0.0003290677069483216    3    3    3    1
 0.0009461036603526506    3    3    3    2
 0.9327652321959383    3    3    3    3
 0.0003648446038279028    3    3    4    1
 0.001701355371901805    3    3    4    2
 -0.0001504789728374567    3    3    4    3
 0.8584208883975747    3    3    4    4
 -0.001149613211852977    3    3    5    1
 0.0008505743211072232    3    3    5    2
 0.0002939366935154457    3    3    5    3
 -0.0003194727194783781    3    3    5    4
 0.8590469309703047    3    3    5    5
 -0.09919587703352162    3    3    6    1
 -0.2290253127593833    3    3    6    2
 -0.04039735517300137    3    3    6    3
 0.02171416325958291    3    3    6    4
 0.001288339788758479    3    3    6    5
 0.7308149403848755    3    3    6    6
 -0.2208171376830943    3    3    7    1
 0.1001292665085569    3    3    7    2
 -0.01000780963899914    3    3    7    3
 -0.01179305363109836    3    3    7    4
 0.001601404031391923    3    3    7    5
 -0.003907491196134542    3    3    7    6
 0.6953023795957057    3    3    7    7
 -0.007728438611260597    3    3    8    1
 -0.001054652042774287    3    3    8    2
 0.07308223335558052    3    3    8    3
 0.08291758270876905    3    3    8    4
 -0.2178104945251735    3    3    8    5
 -0.002227351165402854    3    3    8    6
 -0.001202791193119932    3    3    8    7
 0.7072986133550402    3    3    8    8
 -0.00153991189507437    3    3    9    1
 -0.03100879184281602    3    3    9    2
 0.03260256914290177    3    3    9    3
 -0.2259662420043275    3    3    9    4
 -0.07760730470496437    3    3    9    5
 0.002862842604259461    3    3    9    6
 -0.0001348217593336157    3    3    9    7
 0.0004931990620863692    3    3    9    8
 0.7043471222522083    3    3    9    9
 0.02243931278167369    3    3   10    1
 0.02887295009112469    3    3   10    2
 -0.2534880315746155    3    3   10    3
 -0.008173247390740653    3    3   10    4
 -0.07276540127347489    3    3   10    5
 0.00346486950091072    3    3   10    6
 0.00248459599776779    3    3   10    7
 -0.009547722042567959    3    3   10    8
 -0.00497593650857131    3    3   10    9
 0.7406967496791759    3    3   10   10
 0.0001828936387541135    4    1    1    1
 -0.0002434773953081959    4    1    2    1
 -7.462774678840909e-06    4    1    2    2
 0.0001401998692211863    4    1    3    1
 -0.0008423666669181111    4    1    3    2
 0.0003648446038272648    4    1    3    3
 0.02663367046869225    4    1    4    1
 0.004715917937409146    4    1    4    2
 0.008379261396827766    4    1    4    3
 0.0001656146793753412    4    1    4    4
 -0.004654396135903955    4    1    5    1
 -0.007515967968323372    4    1    5    2
 0.006293114396035493    4    1    5    3
 -0.0007218647575924697    4    1    5    4
 0.0001159918636794481    4    1    5    5
 0.0008662409751871235    4    1    6    1
 0.0001798114366143577    4    1    6    2
 0.000487572454526092    4    1    6    3
 -0.005799455416346739    4    1    6    4
 0.002676723571010452    4    1    6    5
 -0.002170088067636447    4    1    6    6
 -0.000613669170842514    4    1    7    1
 4.562003439539671e-05    4    1    7    2
 -0.0003041798369043527    4    1    7    3
 -0.00877676272000698    4    1    7    4
 0.0003792223741938305    4    1    7    5
 -0.0007918434685172735    4    1    7    6
 0.001668567901028482    4    1    7    7
 0.004532027069957747    4    1    8    1
 0.002618287745582914    4    1    8    2
 -0.0009056498725829145    4    1    8    3
 0.0008128436522704746    4    1    8    4
 0.0005649164245022321    4    1    8    5
 -0.008215158465351721    4    1    8    6
 -0.00556944601056175    4    1    8    7
 -0.001190394879569422    4    1    8    8
 -0.008087465484222938    4    1    9    1
 -0.0006175941790861779    4    1    9    2
 -0.003491965748915378    4    1    9    3
 8.5020965600915e-05    4    1    9    4
 0.0008327012767485041    4    1    9    5
 0.008316724419193759    4    1    9    6
 0.01295828207239384    4    1    9    7
 -0.002548987707824203    4    1    9    8
 -0.001274306031490909    4    1    9    9
 0.0001439846819883969    4    1   10    1
 0.0009179010252323225    4    1   10    2
 -0.0009400030939659939    4    1   10    3
 -0.001824603218099918    4    1   10    4
 -0.002658674004454394    4    1   10    5
 -0.002005262447077931    4    1   10    6
 0.0007996725810062685    4    1   10    7
 0.002769309063124585    4    1   10    8
 0.004112752166031239    4    1   10    9
 0.003449631669553547    4    1   10   10
 -0.0001089310125066811    4    2    1    1
 9.234759826213311e-05    4    2    2    1
 -0.0005808103262423508    4    2    2    2
 -0.001252165019869787    4    2    3    1
 0.000113785236273925    4    2    3    2
 0.001701355371902103    4    2    3    3
 0.004715917937409148    4    2    4    1
 0.03386144191056355    4    2    4    2
 -0.002215512338983371    4    2    4    3
 -0.0005770659773980248    4    2    4    4
 -0.007811433390107319    4    2    5    1
 0.004563326408414842    4    2    5    2
 0.01439353792559485    4    2    5    3
 0.000877402894653271    4    2    5    4
 -0.003209760977265978    4    2    5    5
 0.0002320006697857283    4    2    6    1
 0.001313570565114212    4    2    6    2
 -8.119112663838307e-06    4    2    6    3
 -0.01152017783141989    4    2    6    4
 -0.00110233524736051    4    2    6    5
 -0.00429319864997046    4    2    6    6
 6.698150844633332e-05    4    2    7    1
 -0.0006851293761575975    4    2    7    2
 0.0004680746746411848    4    2    7    3
 0.003703257169049157    4    2    7    4
 0.00302409903000479    4    2    7    5
 0.001701133970717657    4    2    7    6
 -0.0008231997841258643    4    2    7    7
 0.002769325438798357    4    2    8    1
 0.002438767259678326    4    2    8    2
 -0.0045185451150085    4    2    8    3
 -0.000681117918569161    4    2    8    4
 0.00263830210107752    4    2    8    5
 -0.005368920669416528    4    2    8    6
 -0.002669560518537453    4    2    8    7
 -0.007479584862709143    4    2    8    8
 -0.0006414527463365128    4    2    9    1
 -0.01108140560799138    4    2    9    2
 -0.0008246793158123185    4    2    9    3
 -0.001368193199935628    4    2    9    4
 0.0005786474707255026    4    2    9    5
 0.02000774161469629    4    2    9    6
 -0.007113789295645884    4    2    9    7
 -0.002073839574328879    4    2    9    8
 0.00451747814008628    4    2    9    9
 0.001105282730950787    4    2   10    1
 -0.0009314130576757742    4    2   10    2
 -0.001944213643570833    4    2   10    3
 0.002260364286560028    4    2   10    4
 -0.004584315516114812    4    2   10    5
 0.001607827729815391    4    2   10    6
 -0.00284606108950519    4    2   10    7
 0.007977151201567114    4    2   10    8
 -0.00130011627860087    4    2   10    9
 0.00625843026094022    4    2   10   10
 -0.0003780933677336838    4    3    1    1
 0.002051078942149049    4    3    2    1
 -0.0003164716923080599    4    3    2    2
 -0.0001073242132046693    4    3    3    1
 -0.001107851473855119    4    3    3    2
 -0.0001504789728370593    4    3    3    3
 0.008379261396827804    4    3    4    1
 -0.002215512338983383    4    3    4    2
 0.03618582986310463    4    3    4    3
 -3.682804699498888e-05    4    3    4    4
 -0.002201104521978225    4    3    5    1
 -0.01577435528936015    4    3    5    2
 7.415926057115984e-05    4    3    5    3
 9.436818955421236e-05    4    3    5    4
 0.0004589608466816467    4    3    5    5
 -0.0003102174801583368    4    3    6    1
 -0.0002769682400888376    4    3    6    2
 0.001460305935572298    4    3    6    3
 -0.002363431571779377    4    3    6    4
 0.005481560935515788    4    3    6    5
 -0.0001714654191508251    4    3    6    6
 0.000239266130869162    4    3    7    1
 -0.0007003807389745015    4    3    7    2
 -0.000713524525794113    4    3    7    3
 -0.003744397006097426    4    3    7    4
 -0.001720769738733308    4    3    7    5
 0.0005581957715943191    4    3    7    6
 -0.0005921598803587367    4    3    7    7
 0.001620072850312771    4    3    8    1
 0.004302009292542592    4    3    8    2
 0.004057901174153769    4    3    8    3
 0.003149672719345026    4    3    8    4
 -8.602206242463582e-05    4    3    8    5
 -0.01011067952695576    4    3    8    6
 -3.435912907312075e-06    4    3    8    7
 0.004408366290122093    4    3    8    8
 -0.002744140562783745    4    3    9    1
 0.002420847915395534    4    3    9    2
 -0.01098139745866033    4    3    9    3
 0.001525710868479054    4    3    9    4
 0.0004796141448104208    4    3    9    5
 0.001414588477580285    4    3    9    6
 0.006885657090107503    4    3    9    7
 -0.005928160367848134    4    3    9    8
 -0.006509948537453607    4    3    9    9
 0.0002099705119409382    4    3   10    1
 0.002067496358450584    4    3   10    2
 -0.0005214138125954964    4    3   10    3
 -0.01157873966161464    4    3   10    4
 -0.0007629795372293592    4    3   10    5
 -0.005887886927263683    4    3   10    6
 0.00236452287247903    4    3   10    7
 -0.00650819644340284    4    3   10    8
 0.02064307257548917    4    3   10    9
 0.002435540298427599    4    3   10   10
 0.8782992838985113    4    4    1    1
 -0.008989742739886269    4    4    2    1
 0.8663396206952577    4    4    2    2
 -0.01660171358705559    4    4    3    1
 0.005241289662702143    4    4    3    2
 0.8584208883975745    4    4    3    3
 0.000165614679374994    4    4    4    1
 -0.0005770659773979519    4    4    4    2
 -3.682804699480511e-05    4    4    4    3
 0.9256725215750183    4    4    4    4
 0.001710007224504999    4    4    5    1
 -0.002152403893588287    4    4    5    2
 -0.0003272535107245458    4    4    5    3
 5.845113322299799e-05    4    4    5    4
 0.8542405273632404    4    4    5    5
 -0.09576160592993162    4    4    6    1
 -0.218713308670603    4    4    6    2
 -0.03558154195487424    4    4    6    3
 0.02477132076013578    4    4    6    4
 0.001839151966627627    4    4    6    5
 0.7058254236435078    4    4    6    6
 -0.2321647325221431    4    4    7    1
 0.1031365635587004    4    4    7    2
 -0.002587916047017475    4    4    7    3
 -0.01335646426775166    4    4    7    4
 9.485279816625739e-05    4    4    7    5
 -0.002960254914964456    4    4    7    6
 0.7111241381854757    4    4    7    7
 -0.0103600443880501    4    4    8    1
 0.00027826705691666    4    4    8    2
 0.06606749932622928    4    4    8    3
 0.09166512582351724    4    4    8    4
 -0.2183923724447614    4    4    8    5
 0.0007938542698810055    4    4    8    6
 0.004464895898987737    4    4    8    7
 0.705461197916964    4    4    8    8
 -0.001718373898826123    4    4    9    1
 -0.02864644877195767    4    4    9    2
 0.02920789641184064    4    4    9    3
 -0.2494224706695979    4    4    9    4
 -0.07742089596996393    4    4    9    5
 -0.004249762604619693    4    4    9    6
 0.00441197721454852    4    4    9    7
 -0.01594709076779711    4    4    9    8
 0.7399744737587023    4    4    9    9
 0.02739928402063662    4    4   10    1
 0.02628216999037129    4    4   10    2
 -0.2291900566513609    4    4   10    3
 -0.009019747120181101    4    4   10    4
 -0.07306407148963828    4    4   10    5
 -0.002403896401301296    4    4   10    6
 -0.01068491193327817    4    4   10    7
 -0.0001296115622998964    4    4   10    8
 0.002156951123565981    4    4   10    9
 0.6982460772276391    4    4   10   10
 0.0002821874918603718    5    1    1    1
 -0.000309884081546448    5    1    2    1
 0.0001241857281298901    5    1    2    2
 -0.0009833738731035554    5    1    3    1
 0.0006537272095453896    5    1    3    2
 -0.001149613211852816    5    1    3    3
 -0.004654396135903968    5    1    4    1
 -0.007811433390107308    5    1    4    2
 -0.002201104521978219    5    1    4    3
 0.001710007224505012    5    1    4    4
 0.02473100441462305    5    1    5    1
 0.0007318899326243148    5    1    5    2
 -0.008587311693876021    5    1    5    3
 5.010091519129806e-05    5    1    5    4
 0.0002877770483252693    5    1    5    5
 -8.186213700536571e-06    5    1    6    1
 -0.0002623953443356451    5    1    6    2
 -7.961566062250351e-05    5    1    6    3
 0.003285891009649239    5    1    6    4
 -0.003422953602999807    5    1    6    5
 0.00111112965647887    5    1    6    6
 -2.7336717792329e-05    5    1    7    1
 0.0002684644912409409    5    1    7    2
 0.0004090996343453302    5    1    7    3
 0.0004064199409276891    5    1    7    4
 -0.008520450431401939    5    1    7    5
 -0.0005954402428640186    5    1    7    6
 0.0001210033057823509    5    1    7    7
 -0.008305760627929716    5    1    8    1
 -0.001001750425854212    5    1    8    2
 0.002380856915778642    5    1    8    3
 7.461727648956259e-05    5    1    8    4
 -0.001331396554827239    5    1    8    5
 0.007454235115099781    5    1    8    6
 0.01279887030677801    5    1    8    7
 0.003727698428111096    5    1    8    8
 -0.001317571601983081    5    1    9    1
 0.002305557770557251    5    1    9    2
 0.001540908298255882    5    1    9    3
 -0.0003221933489181356    5    1    9    4
 -0.000494462683372247    5    1    9    5
 -0.004197757100532714    5    1    9    6
 0.003814047339174468    5    1    9    7
 0.001533331698186666    5    1    9    8
 0.0007066175022625257    5    1    9    9
 -0.002283264615568796    5    1   10    1
 -0.000163585891639264    5    1   10    2
 0.001332257476809621    5    1   10    3
 0.0001767673294282435    5    1   10    4
 0.003871260336351178    5    1   10    5
 0.001689982309957394    5    1   10    6
 0.003266602166912411    5    1   10    7
 -0.005144348911809064    5    1   10    8
 -0.002271900447673666    5    1   10    9
 -0.004783664783045405    5    1   10   10
 0.0002079622235553001    5    2    1    1
 3.72247762659854e-05    5    2    2    1
 -0.0003772567563238352    5    2    2    2
 0.001020680488645415    5    2    3    1
 0.0008469529947680211    5    2    3    2
 0.0008505743211075369    5    2    3    3
 -0.007515967968323378    5    2    4    1
 0.004563326408414845    5    2    4    2
 -0.01577435528936016    5    2    4    3
 -0.002152403893588085    5    2    4    4
 0.000731889932624286    5    2    5    1
 0.03610137648114408    5    2    5    2
 0.002278545367076617    5    2    5    3
 0.00124415379674284    5    2    5    4
 -0.0004126248998910881    5    2    5    5
 -0.000274875614671063    5    2    6    1
 0.0003904932745164308    5    2    6    2
 -0.0009019140870338638    5    2    6    3
 0.000345408683832393    5    2    6    4
 -0.01190461021944119    5    2    6    5
 -3.122463482106519e-05    5    2    6    6
 0.0001481446265429813    5    2    7    1
 -0.0001558005809518529    5    2    7    2
 4.958533513700289e-05    5    2    7    3
 0.003363023078556919    5    2    7    4
 0.005193837876793991    5    2    7    5
 0.0007872273270548397    5    2    7    6
 -0.0004905164298569375    5    2    7    7
 -0.000981164497439796    5    2    8    1
 -0.01025257082535097    5    2    8    2
 -0.002631053969291234    5    2    8    3
 -0.002146477328406624    5    2    8    4
 0.0006138917764463216    5    2    8    5
 0.01923888307874687    5    2    8    6
 -0.00578087822838103    5    2    8    7
 -0.003330698996049188    5    2    8    8
 0.002331467208344746    5    2    9    1
 -0.00535113277715423    5    2    9    2
 0.004715628699534611    5    2    9    3
 -0.0002125403013323415    5    2    9    4
 -0.001792152049276495    5    2    9    5
 0.005842362909251175    5    2    9    6
 -0.008590197640397049    5    2    9    7
 0.005223186574875776    5    2    9    8
 0.003918984104269087    5    2    9    9
 -0.0002827884160708675    5    2   10    1
 -0.003980702206961338    5    2   10    2
 -0.0002470985345475945    5    2   10    3
 0.005202017854402033    5    2   10    4
 0.0006589021981362065    5    2   10    5
 0.008281319288553883    5    2   10    6
 -0.00300907123251394    5    2   10    7
 0.001992206893099278    5    2   10    8
 -0.008687794488975276    5    2   10    9
 -0.001238643159407753    5    2   10   10
 0.002025342502851208    5    3    1    1
 -0.001649818288554038    5    3    2    1
 -0.001559702595593761    5    3    2    2
 0.0006913496988046649    5    3    3    1
 -0.0006324019624363631    5    3    3    2
 0.0002939366935153808    5    3    3    3
 0.006293114396035462    5    3    4    1
 0.01439353792559486    5    3    4    2
 7.415926057116646e-05    5    3    4    3
 -0.0003272535107246533    5    3    4    4
 -0.008587311693875992    5    3    5    1
 0.002278545367076666    5    3    5    2
 0.03579783938423762    5    3    5    3
 -0.0002869143532950188    5    3    5    4
 -9.472330984309083e-06    5    3    5    5
 0.0003767063896406447    5    3    6    1
 0.001148344212194711    5    3    6    2
 0.0001569568285948394    5    3    6    3
 -0.005615010893086051    5    3    6    4
 -0.001417176787150709    5    3    6    5
 -0.00358183441206344    5    3    6    6
 -0.00109542573008807    5    3    7    1
 0.0001347843369776749    5    3    7    2
 -0.0002545410400793833    5    3    7    3
 1.729919986986343e-06    5    3    7    4
 0.002967137899072915    5    3    7    5
 0.0008292294675907022    5    3    7    6
 0.001731626323281459    5    3    7    7
 0.003491911226875388    5    3    8    1
 0.0007032786176176628    5    3    8    2
 -0.01062508962835342    5    3    8    3
 -1.558179525412427e-05    5    3    8    4
 0.003343738527040295    5    3    8    5
 -0.001354986581252718    5    3    8    6
 -0.004364949304977776    5    3    8    7
 -0.01184644746377413    5    3    8    8
 -0.0009696096118754381    5    3    9    1
 -0.004742408049260398    5    3    9    2
 -0.003775618626519747    5    3    9    3
 -0.0006573317760238366    5    3    9    4
 0.001451461222560855    5    3    9    5
 0.01058786880551739    5    3    9    6
 -0.001746251542187245    5    3    9    7
 -0.004837571648756937    5    3    9    8
 6.120971175363802e-05    5    3    9    9