 &FCI NORB=   5,NELEC= 7,MS2=3,
  ORBSYM=1,1,1,1,1,
  ISYM=1,
 &END
 0.9360849555925769    1    1    1    1
 2.597902738416045e-08    1    1    2    1
 0.8550284506815667    1    1    2    2
 -1.010214515147364e-07    1    1    3    1
 0.0009960147403577815    1    1    3    2
 0.8758892280556695    1    1    3    3
 0.002126940433600778    1    1    4    1
 -4.963059096723256e-08    1    1    4    2
 6.462042676122991e-07    1    1    4    3
 0.8692446869149696    1    1    4    4
 -3.535092465718065e-08    1    1    5    1
 0.0009626558037830863    1    1    5    2
 0.01589117570033333    1    1    5    3
 1.468795310894744e-07    1    1    5    4
 0.8888733682736033    1    1    5    5
 2.597902738251382e-08    2    1    1    1
 0.04117909692143345    2    1    2    1
 1.511359545811263e-08    2    1    2    2
 -0.001067320187837394    2    1    3    1
 -9.54102305066349e-08    2    1    3    2
 -2.926994074984999e-08    2    1    3    3
 1.482583403231786e-08    2    1    4    1
 0.001691968439850469    2    1    4    2
 0.01682587993169365    2    1    4    3
 4.166409450308487e-07    2    1    4    4
 6.639286760360901e-06    2    1    5    1
 3.308505498593782e-08    2    1    5    2
 -3.965157492852722e-07    2    1    5    3
 -0.007887922778931361    2    1    5    4
 -3.317622614917088e-07    2    1    5    5
 0.8550284506815673    2    2    1    1
 1.51135954571161e-08    2    2    2    1
 0.9381898975453283    2    2    2    2
 8.572636364086248e-08    2    2    3    1
 -0.001314554767348893    2    2    3    2
 0.8812806645727989    2    2    3    3
 -0.00139071931266325    2    2    4    1
 -1.554357486606661e-08    2    2    4    2
 -5.572952430190129e-07    2    2    4    3
 0.8922575089252466    2    2    4    4
 -8.053413014911279e-08    2    2    5    1
 0.001239282408126698    2    2    5    2
 -0.01197154551777717    2    2    5    3
 1.155849839406975e-07    2    2    5    4
 0.8634460000286077    2    2    5    5
 -1.010214515147762e-07    3    1    1    1
 -0.001067320187837395    3    1    2    1
 8.572636363958611e-08    3    1    2    2
 0.03124297080984108    3    1    3    1
 2.385002483522502e-08    3    1    3    2
 -1.144478123702128e-07    3    1    3    3
 -3.245630705764359e-07    3    1    4    1
 -0.007663830383716437    3    1    4    2
 0.006287538025256406    3    1    4    3
 1.481428521387172e-07    3    1    4    4
 -0.007409918220652814    3    1    5    1
 1.294277606055479e-07    3    1    5    2
 2.764946772992803e-08    3    1    5    3
 0.0120891351962194    3    1    5    4
 -5.135817621033625e-07    3    1    5    5
 0.0009960147403577566    3    2    1    1
 -9.541023050664049e-08    3    2    2    1
 -0.001314554767348965    3    2    2    2
 2.385002483583038e-08    3    2    3    1
 0.02901818291594046    3    2    3    2
 -0.001435869391151851    3    2    3    3
 -0.009103208467506436    3    2    4    1
 2.710095411948682e-07    3    2    4    2
 -1.021349717117035e-07    3    2    4    3
 0.005503878777053531    3    2    4    4
 2.685556734355197e-07    3    2    5    1
 0.006555947168837597    3    2    5    2
 0.008500785062370807    3    2    5    3
 -1.355601677990799e-07    3    2    5    4
 -0.009912176034052343    3    2    5    5
 0.8758892280556689    3    3    1    1
 -2.92699407503311e-08    3    3    2    1
 0.8812806645727992    3    3    2    2
 -1.14447812372002e-07    3    3    3    1
 -0.001435869391151826    3    3    3    2
 0.941575519831137    3    3    3    3
 -0.01031205360198324    3    3    4    1
 1.892688112729484e-07    3    3    4    2
 -2.793972688977389e-09    3    3    4    3
 0.8688318640558707    3    3    4    4
 -9.024388102669577e-08    3    3    5    1
 -0.0158336989914582    3    3    5    2
 0.001346287356630889    3    3    5    3
 -6.114038449538817e-08    3    3    5    4
 0.8691485852312376    3    3    5    5
 0.002126940433600974    4    1    1    1
 1.482583403274434e-08    4    1    2    1
 -0.001390719312663044    4    1    2    2
 -3.245630705763969e-07    4    1    3    1
 -0.00910320846750641    4    1    3    2
 -0.01031205360198321    4    1    3    3
 0.03614925907610203    4    1    4    1
 -1.937901827927404e-07    4    1    4    2
 -1.285357513247502e-07    4    1    4    3
 0.002153259695688714    4    1    4    4
 -3.394665460317454e-08    4    1    5    1
 0.002887968070672257    4    1    5    2
 -0.007582313529194703    4    1    5    3
 -6.226429089204859e-08    4    1    5    4
 0.01732714144108686    4    1    5    5
 -4.96305909666985e-08    4    2    1    1
 0.001691968439850467    4    2    2    1
 -1.554357486358978e-08    4    2    2    2
 -0.007663830383716438    4    2    3    1
 2.710095411955039e-07    4    2    3    2
 1.892688112720045e-07    4    2    3    3
 -1.937901827929405e-07    4    2    4    1
 0.02520612345129675    4    2    4    2
 -0.003481203099000729    4    2    4    3
 -1.383278549215876e-08    4    2    4    4
 0.004975428164365094    4    2    5    1
 -2.11891004328681e-08    4    2    5    2
 1.803504679026652e-07    4    2    5    3
 -0.008486697371061501    4    2    5    4
 -1.855991774679628e-07    4    2    5    5
 6.462042676139017e-07    4    3    1    1
 0.01682587993169367    4    3    2    1
 -5.572952430081137e-07    4    3    2    2
 0.006287538025256403    4    3    3    1
 -1.02134971711291e-07    4    3    3    2
 -2.793972692056354e-09    4    3    3    3
 -1.285357513254588e-07    4    3    4    1
 -0.003481203099000728    4    3    4    2
 0.03785351456605569    4    3    4    3
 -6.106558913449755e-09    4    3    4    4
 -0.00457134947784358    4    3    5    1
 -4.015329395457684e-08    4    3    5    2
 7.13032102100582e-08    4    3    5    3
 0.00112804720849681    4    3    5    4
 -1.121843514462903e-07    4    3    5    5
 0.8692446869149703    4    4    1    1
 4.166409450314691e-07    4    4    2    1
 0.8922575089252459    4    4    2    2
 1.481428521385783e-07    4    4    3    1
 0.005503878777053322    4    4    3    2
 0.8688318640558712    4    4    3    3
 0.002153259695688601    4    4    4    1
 -1.383278549639731e-08    4    4    4    2
 -6.106558907354506e-09    4    4    4    3
 0.9477776844645404    4    4    4    4
 8.873900269842135e-08    4    4    5    1
 0.01805734999730434    4    4    5    2
 -0.0008539662147841899    4    4    5    3
 7.994483458293789e-08    4    4    5    4
 0.8737948307507464    4    4    5    5
 -3.535092465677111e-08    5    1    1    1
 6.639286760362531e-06    5    1    2    1
 -8.053413014781418e-08    5    1    2    2
 -0.007409918220652816    5    1    3    1
 2.685556734357423e-07    5    1    3    2
 -9.024388102684559e-08    5    1    3    3
 -3.394665460256722e-08    5    1    4    1
 0.004975428164365093    5    1    4    2
 -0.004571349477843573    5    1    4    3
 8.873900269700681e-08    5    1    4    4
 0.02479303528115221    5    1    5    1
 1.682525077850199e-07    5    1    5    2
 2.051464312223236e-07    5    1    5    3
 -0.007645546434261403    5    1    5    4
 -2.9090641096784e-08    5    1    5    5
 0.0009626558037830931    5    2    1    1
 3.308505498565465e-08    5    2    2    1
 0.001239282408126733    5    2    2    2
 1.294277606057877e-07    5    2    3    1
 0.006555947168837593    5    2    3    2
 -0.01583369899145813    5    2    3    3
 0.002887968070672269    5    2    4    1
 -2.118910043276984e-08    5    2    4    2
 -4.015329395500925e-08    5    2    4    3
 0.01805734999730427    5    2    4    4
 1.682525077851406e-07    5    2    5    1
 0.03795299234710428    5    2    5    2
 0.004340628298482265    5    2    5    3
 8.335445350750886e-08    5    2    5    4
 0.00119344508749051    5    2    5    5
 0.01589117570033333    5    3    1    1
 -3.965157492861428e-07    5    3    2    1
 -0.01197154551777701    5    3    2    2
 2.764946773082716e-08    5    3    3    1
 0.008500785062370828    5    3    3    2
 0.001346287356630878    5    3    3    3
 -0.0075823135291947    5    3    4    1
 1.803504679025074e-07    5    3    4    2
 7.130321020862819e-08    5    3    4    3
 -0.000853966214783929    5    3    4    4
 2.051464312220119e-07    5    3    5    1
 0.004340628298482254    5    3    5    2
 0.03583780346951097    5    3    5    3
 5.105635796164942e-08    5    3    5    4
 0.001106552097422394    5    3    5    5
 1.468795310896963e-07    5    4    1    1
 -0.007887922778931373    5    4    2    1
 1.155849839404467e-07    5    4    2    2
 0.01208913519621941    5    4    3    1
 -1.355601677980501e-07    5    4    3    2
 -6.114038449917641e-08    5    4    3    3
 -6.22642908920181e-08    5    4    4    1
 -0.008486697371061492    5    4    4    2
 0.001128047208496793    5    4    4    3
 7.99448345759143e-08    5    4    4    4
 -0.007645546434261404    5    4    5    1
 8.335445350830868e-08    5    4    5    2
 5.105635796109123e-08    5    4    5    3
 0.03509653745367669    5    4    5    4
 7.345546369560943e-08    5    4    5    5
 0.8888733682736034    5    5    1    1
 -3.317622614918358e-07    5    5    2    1
 0.8634460000286079    5    5    2    2
 -5.135817620997976e-07    5    5    3    1
 -0.0099121760340524    5    5    3    2
 0.8691485852312376    5    5    3    3
 0.01732714144108689    5    5    4    1
 -1.855991774713707e-07    5    5    4    2
 -1.12184351438088e-07    5    5    4    3
 0.8737948307507466    5    5    4    4
 -2.909064109729836e-08    5    5    5    1
 0.001193445087490504    5    5    5    2
 0.001106552097422345    5    5    5    3
 7.345546369798239e-08    5    5    5    4
 0.9406816272314955    5    5    5    5
 -5.964073914296708    1    1  0  0
 -1.459683587148059e-07    2    1  0  0
 -5.973500964609324    2    2  0  0
 2.313976415046371e-07    3    1  0  0
 0.002614087280027366    3    2  0  0
 -5.9445665254014    3    3  0  0
 -0.005281793530073105    4    1  0  0
 1.589249788393547e-07    4    2  0  0
 1.935171563153858e-07    4    3  0  0
 -5.966082123922359    4    4  0  0
 2.272735759537978e-07    5    1  0  0
 -0.007328860305830187    5    2  0  0
 0.002183707882972491    5    3  0  0
 -5.464720619717743e-08    5    4  0  0
 -5.977628350342242    5    5  0  0
 -3208.005238428308  0  0  0  0
