 &FCI NORB=   5,NELEC= 7,MS2=3,
  ORBSYM=1,1,1,1,1,
  ISYM=1,
 &END
 0.9377950726533218    1    1    1    1
 2.403395114022815e-05    1    1    2    1
 0.8572945254108063    1    1    2    2
 -0.0004273964353895817    1    1    3    1
 -0.000654516969039494    1    1    3    2
 0.8698335609682538    1    1    3    3
 -0.0009098589491428176    1    1    4    1
 0.0008568238660261197    1    1    4    2
 0.000969703141043532    1    1    4    3
 0.8701032058828151    1    1    4    4
 0.0006818639468585401    1    1    5    1
 0.0001118027621220717    1    1    5    2
 0.005940535992002429    1    1    5    3
 0.001575385149029426    1    1    5    4
 0.8968491734979422    1    1    5    5
 2.403395114033231e-05    2    1    1    1
 0.04132307986773903    2    1    2    1
 -7.71658777626122e-05    2    1    2    2
 0.0003739294124992497    2    1    3    1
 0.0009338533050874179    2    1    3    2
 -0.005765283745030547    2    1    3    3
 -0.0004933938593770933    2    1    4    1
 -0.0003847389027549305    2    1    4    2
 0.01676070798834466    2    1    4    3
 0.004637641003781518    2    1    4    4
 6.28279621530198e-05    2    1    5    1
 -0.0001827605505140657    2    1    5    2
 -0.001962578143963111    2    1    5    3
 -0.006097209894254108    2    1    5    4
 0.0008173498579176757    2    1    5    5
 0.8572945254108063    2    2    1    1
 -7.716587776255003e-05    2    2    2    1
 0.9422426281956942    2    2    2    2
 -0.002400947771358968    2    2    3    1
 -6.757871329273753e-05    2    2    3    2
 0.8893932558556545    2    2    3    3
 -0.0001785528986030219    2    2    4    1
 -0.0001754490836116227    2    2    4    2
 -0.002403951286345535    2    2    4    3
 0.8925002936584674    2    2    4    4
 0.001078831625508899    2    2    5    1
 0.0001941360377598069    2    2    5    2
 -0.01023203533942769    2    2    5    3
 -0.00584101792031173    2    2    5    4
 0.8616298431490157    2    2    5    5
 -0.0004273964353895273    3    1    1    1
 0.000373929412499252    3    1    2    1
 -0.00240094777135895    3    1    2    2
 0.03512471774137561    3    1    3    1
 0.002827094698304866    3    1    3    2
 -0.0003617061494120592    3    1    3    3
 -0.0006719490203559794    3    1    4    1
 -0.008401425691028573    3    1    4    2
 0.004223165915169748    3    1    4    3
 0.004597960062406698    3    1    4    4
 -0.004037433602983331    3    1    5    1
 0.001651950403671581    3    1    5    2
 -0.0002565112457977923    3    1    5    3
 0.01443777040900079    3    1    5    4
 -0.003551186580273963    3    1    5    5
 -0.0006545169690393388    3    2    1    1
 0.0009338533050874163    3    2    2    1
 -6.757871329273206e-05    3    2    2    2
 0.002827094698304867    3    2    3    1
 0.02645405567298763    3    2    3    2
 -2.371887213521016e-05    3    2    3    3
 -0.008409674413750897    3    2    4    1
 0.0009593832698752611    3    2    4    2
 0.000923114460915805    3    2    4    3
 0.006131434744157472    3    2    4    4
 0.0001336167356649894    3    2    5    1
 0.004050825182042492    3    2    5    2
 0.008396301169453715    3    2    5    3
 0.001066155446418741    3    2    5    4
 -0.005606736425900088    3    2    5    5
 0.8698335609682537    3    3    1    1
 -0.005765283745030615    3    3    2    1
 0.8893932558556549    3    3    2    2
 -0.0003617061494121165    3    3    3    1
 -2.371887213525438e-05    3    3    3    2
 0.9432632685525321    3    3    3    3
 -0.009314309401857445    3    3    4    1
 -0.002124402550431175    3    3    4    2
 -0.0005452492370510793    3    3    4    3
 0.8730936658575104    3    3    4    4
 0.001246154516792036    3    3    5    1
 -0.01662410009433703    3    3    5    2
 -0.002192239226383198    3    3    5    3
 0.0005484546151141207    3    3    5    4
 0.8688293569772236    3    3    5    5
 -0.0009098589491431945    4    1    1    1
 -0.0004933938593771122    4    1    2    1
 -0.0001785528986030582    4    1    2    2
 -0.0006719490203560519    4    1    3    1
 -0.008409674413750956    4    1    3    2
 -0.00931430940185737    4    1    3    3
 0.03604826342901026    4    1    4    1
 -0.0023468414950706    4    1    4    2
 -0.002495491237590965    4    1    4    3
 -0.0009958551205528532    4    1    4    4
 -0.001477919640833774    4    1    5    1
 0.003530921893381232    4    1    5    2
 -0.0135452428929181    4    1    5    3
 0.0005140680526942448    4    1    5    4
 0.007060442626262947    4    1    5    5
 0.0008568238660262693    4    2    1    1
 -0.0003847389027549482    4    2    2    1
 -0.0001754490836116643    4    2    2    2
 -0.008401425691028582    4    2    3    1
 0.0009593832698752736    4    2    3    2
 -0.002124402550431338    4    2    3    3
 -0.002346841495070643    4    2    4    1
 0.02592864788076667    4    2    4    2
 -0.003078839272827613    4    2    4    3
 -0.0002283308393249837    4    2    4    4
 0.002537387616902194    4    2    5    1
 0.002288315032418568    4    2    5    2
 0.004064616072500827    4    2    5    3
 -0.008462375084584181    4    2    5    4
 0.0007896121354046829    4    2    5    5
 0.00096970314104345    4    3    1    1
 0.01676070798834467    4    3    2    1
 -0.002403951286345472    4    3    2    2
 0.004223165915169718    4    3    3    1
 0.0009231144609157814    4    3    3    2
 -0.0005452492370511351    4    3    3    3
 -0.002495491237590949    4    3    4    1
 -0.003078839272827605    4    3    4    2
 0.03598513614478551    4    3    4    3
 -0.0005774903470389719    4    3    4    4
 -0.0008799487835055177    4    3    5    1
 -0.005146115665836067    4    3    5    2
 -0.001033304670799813    4    3    5    3
 -0.0003804740623916426    4    3    5    4
 0.0001713866483564351    4    3    5    5
 0.8701032058828155    4    4    1    1
 0.004637641003781363    4    4    2    1
 0.8925002936584675    4    4    2    2
 0.004597960062406683    4    4    3    1
 0.006131434744157464    4    4    3    2
 0.8730936658575109    4    4    3    3
 -0.0009958551205524605    4    4    4    1
 -0.0002283308393249752    4    4    4    2
 -0.0005774903470387935    4    4    4    3
 0.946999568547759    4    4    4    4
 -0.0004688278814155638    4    4    5    1
 0.01708868945289492    4    4    5    2
 -0.001534969223719614    4    4    5    3
 -0.001548535927257906    4    4    5    4
 0.8709099122639148    4    4    5    5
 0.0006818639468587167    5    1    1    1
 6.282796215300878e-05    5    1    2    1
 0.001078831625508981    5    1    2    2
 -0.004037433602983332    5    1    3    1
 0.0001336167356649941    5    1    3    2
 0.001246154516791991    5    1    3    3
 -0.001477919640833803    5    1    4    1
 0.002537387616902201    5    1    4    2
 -0.0008799487835055387    5    1    4    3
 -0.0004688278814153892    5    1    4    4
 0.02120906803142504    5    1    5    1
 -0.0006091992680878321    5    1    5    2
 0.001527298820234052    5    1    5    3
 -0.003997109805669444    5    1    5    4
 0.000686191097803075    5    1    5    5
 0.000111802762121994    5    2    1    1
 -0.0001827605505140665    5    2    2    1
 0.0001941360377596401    5    2    2    2
 0.001651950403671556    5    2    3    1
 0.004050825182042453    5    2    3    2
 -0.0166241000943369    5    2    3    3
 0.003530921893381302    5    2    4    1
 0.002288315032418569    5    2    4    2
 -0.005146115665836072    5    2    4    3
 0.0170886894528948    5    2    4    4
 -0.000609199268087839    5    2    5    1
 0.03983946668431731    5    2    5    2
 0.00273549329679799    5    2    5    3
 -0.0005203963411432113    5    2    5    4
 0.0002462330400914161    5    2    5    5
 0.00594053599200243    5    3    1    1
 -0.001962578143963119    5    3    2    1
 -0.01023203533942769    5    3    2    2
 -0.0002565112457978051    5    3    3    1
 0.008396301169453684    5    3    3    2
 -0.002192239226383117    5    3    3    3
 -0.013545242892918    5    3    4    1
 0.004064616072500788    5    3    4    2
 -0.001033304670799811    5    3    4    3
 -0.001534969223719812    5    3    4    4
 0.00152729882023403    5    3    5    1
 0.002735493296798046    5    3    5    2
 0.03656799392604729    5    3    5    3
 -0.0002829937416048285    5    3    5    4
 -0.00212806886738601    5    3    5    5
 0.001575385149029598    5    4    1    1
 -0.006097209894254108    5    4    2    1
 -0.005841017920311715    5    4    2    2
 0.0144377704090008    5    4    3    1
 0.001066155446418732    5    4    3    2
 0.00054845461511397    5    4    3    3
 0.0005140680526942352    5    4    4    1
 -0.008462375084584179    5    4    4    2
 -0.0003804740623916728    5    4    4    3
 -0.001548535927257804    5    4    4    4
 -0.003997109805669446    5    4    5    1
 -0.0005203963411431948    5    4    5    2
 -0.0002829937416048056    5    4    5    3
 0.03652272277205445    5    4    5    4
 -0.001340439788435934    5    4    5    5
 0.8968491734979421    5    5    1    1
 0.0008173498579176631    5    5    2    1
 0.8616298431490163    5    5    2    2
 -0.00355118658027407    5    5    3    1
 -0.005606736425900267    5    5    3    2
 0.8688293569772237    5    5    3    3
 0.007060442626262833    5    5    4    1
 0.0007896121354048256    5    5    4    2
 0.0001713866483562613    5    5    4    3
 0.8709099122639151    5    5    4    4
 0.0006861910978030991    5    5    5    1
 0.0002462330400914931    5    5    5    2
 -0.002128068867386107    5    5    5    3
 -0.001340439788435894    5    5    5    4
 0.9406671909723283    5    5    5    5
 -5.979066309165366    1    1  0  0
 0.001229039821393373    2    1  0  0
 -5.997210001696479    2    2  0  0
 0.006793858386946012    3    1  0  0
 0.001562979141000814    3    2  0  0
 -5.967156216485457    3    3  0  0
 0.004081968974489031    4    1  0  0
 -0.001119339378558336    4    2  0  0
 -0.0002340475882672034    4    3  0  0
 -5.981989317271592    4    4  0  0
 -0.004867845320787547    5    1  0  0
 -0.0008704726185441887    5    2  0  0
 0.005037139936729517    5    3  0  0
 -0.002691087541081768    5    4  0  0
 -5.979396191380985    5    5  0  0
 -3339.796641093404  0  0  0  0
