 &FCI NORB=   5,NELEC= 7,MS2=3,
  ORBSYM=1,1,1,1,1,
  ISYM=1,
 &END
 0.9426079409788184    1    1    1    1
 -1.05784962159413e-05    1    1    2    1
 0.8549301848445788    1    1    2    2
 -6.594839896501247e-05    1    1    3    1
 0.0001812372753576049    1    1    3    2
 0.8622967177711498    1    1    3    3
 -1.880160337201907e-05    1    1    4    1
 0.0005048273071105615    1    1    4    2
 0.0001657823230159292    1    1    4    3
 0.8637426378051778    1    1    4    4
 4.918744352299473e-05    1    1    5    1
 -0.0008582327717152141    1    1    5    2
 0.000216729319794421    1    1    5    3
 0.0009568816706527663    1    1    5    4
 0.9050555076049002    1    1    5    5
 -1.057849621602992e-05    2    1    1    1
 0.04136443532312602    2    1    2    1
 3.130473952141841e-07    2    1    2    2
 1.067753257078093e-05    2    1    3    1
 -1.652545150237611e-05    2    1    3    2
 0.006053008040128762    2    1    3    3
 4.944695188004064e-05    2    1    4    1
 3.155500411515834e-06    2    1    4    2
 0.0173518227561265    2    1    4    3
 -0.00607077334423619    2    1    4    4
 0.0003568670900859957    2    1    5    1
 1.254577339272102e-06    2    1    5    2
 -0.0005972713901020605    2    1    5    3
 6.55037593997852e-05    2    1    5    4
 1.528321974048014e-06    2    1    5    5
 0.8549301848445797    2    2    1    1
 3.130473952743865e-07    2    2    2    1
 0.9302327937724184    2    2    2    2
 -5.066702350501835e-05    2    2    3    1
 0.0002161383015931953    2    2    3    2
 0.877962611431963    2    2    3    3
 -1.989095537824682e-05    2    2    4    1
 0.0006371862578645103    2    2    4    2
 -4.429273343121655e-05    2    2    4    3
 0.8782063657780542    2    2    4    4
 5.520700481645489e-05    2    2    5    1
 -0.000233375650655359    2    2    5    2
 -0.0002705300282098445    2    2    5    3
 -0.001065191992770295    2    2    5    4
 0.8566457476119059    2    2    5    5
 -6.59483989648317e-05    3    1    1    1
 1.067753257079339e-05    3    1    2    1
 -5.066702350517298e-05    3    1    2    2
 0.03613834537864556    3    1    3    1
 -0.00299648240954818    3    1    3    2
 -8.193107503600337e-05    3    1    3    3
 1.217419649835576e-05    3    1    4    1
 -0.008836651998815247    3    1    4    2
 0.0001176122424203768    3    1    4    3
 0.0009076585173590694    3    1    4    4
 -0.0001284936426106588    3    1    5    1
 0.0003108405888570578    3    1    5    2
 -4.284221912378516e-05    3    1    5    3
 0.01578568693888995    3    1    5    4
 -0.001120339315160687    3    1    5    5
 0.0001812372753579218    3    2    1    1
 -1.652545150233728e-05    3    2    2    1
 0.0002161383015932173    3    2    2    2
 -0.002996482409548207    3    2    3    1
 0.02456321922890244    3    2    3    2
 0.0002167998389190734    3    2    3    3
 -0.008328296782670094    3    2    4    1
 0.0001058291394651252    3    2    4    2
 0.0003000389738754336    3    2    4    3
 0.0001388686009136632    3    2    4    4
 0.0002996870200167543    3    2    5    1
 0.0001181391107543475    3    2    5    2
 0.008594773768203921    3    2    5    3
 -0.003061570593602178    3    2    5    4
 0.0002508962560930994    3    2    5    5
 0.86229671777115    3    3    1    1
 0.006053008040128822    3    3    2    1
 0.877962611431963    3    3    2    2
 -8.193107503605112e-05    3    3    3    1
 0.0002167998389189087    3    3    3    2
 0.9239436959753761    3    3    3    3
 -0.000245851741730082    3    3    4    1
 2.478501867773574e-05    3    3    4    2
 0.0004385486604031768    3    3    4    3
 0.8552464707479892    3    3    4    4
 0.0001653530596228819    3    3    5    1
 -0.017028457678974    3    3    5    2
 -4.213874583950717e-05    3    3    5    3
 -0.0001477933193321766    3    3    5    4
 0.8634679223267785    3    3    5    5
 -1.880160337194983e-05    4    1    1    1
 4.944695188000005e-05    4    1    2    1
 -1.989095537814184e-05    4    1    2    2
 1.217419649832372e-05    4    1    3    1
 -0.008328296782670164    4    1    3    2
 -0.0002458517417299363    4    1    3    3
 0.03621893382070939    4    1    4    1
 0.003008203922095645    4    1    4    2
 -0.0005007620870014289    4    1    4    3
 4.909619452827984e-07    4    1    4    4
 -0.000530284656355213    4    1    5    1
 -3.898591128770678e-05    4    1    5    2
 -0.01605871194119858    4    1    5    3
 6.154128110476232e-05    4    1    5    4
 0.0002424883124774222    4    1    5    5
 0.0005048273071105775    4    2    1    1
 3.155500411508533e-06    4    2    2    1
 0.0006371862578645661    4    2    2    2
 -0.008836651998815235    4    2    3    1
 0.000105829139465148    4    2    3    2
 2.47850186777615e-05    4    2    3    3
 0.00300820392209564    4    2    4    1
 0.02519459847215762    4    2    4    2
 3.392464853026911e-05    4    2    4    3
 0.0006373886106483888    4    2    4    4
 -2.834824121394951e-05    4    2    5    1
 0.0005114458256575583    4    2    5    2
 -0.003062145759954711    4    2    5    3
 -0.008934268001806958    4    2    5    4
 0.001153602420197034    4    2    5    5
 0.0001657823230159062    4    3    1    1
 0.01735182275612653    4    3    2    1
 -4.429273343122595e-05    4    3    2    2
 0.000117612242420375    4    3    3    1
 0.0003000389738754577    4    3    3    2
 0.000438548660403086    4    3    3    3
 -0.0005007620870014041    4    3    4    1
 3.392464853026436e-05    4    3    4    2
 0.03582584346733823    4    3    4    3
 -0.0001246981970932769    4    3    4    4
 0.0003067777815879361    4    3    5    1
 0.00602281413831299    4    3    5    2
 2.378994881888246e-05    4    3    5    3
 7.817650868203697e-06    4    3    5    4
 0.0003574065779338268    4    3    5    5
 0.8637426378051777    4    4    1    1
 -0.006070773344236381    4    4    2    1
 0.8782063657780546    4    4    2    2
 0.0009076585173588394    4    4    3    1
 0.0001388686009131898    4    4    3    2
 0.8552464707479895    4    4    3    3
 4.909619453206032e-07    4    4    4    1
 0.0006373886106482426    4    4    4    2
 -0.0001246981970933313    4    4    4    3
 0.92679796416799    4    4    4    4
 -5.785728828664592e-05    4    4    5    1
 0.01742821080058481    4    4    5    2
 -4.339789622693334e-05    4    4    5    3
 -7.782648708964513e-05    4    4    5    4
 0.8659843093067546    4    4    5    5
 4.918744352288011e-05    5    1    1    1
 0.0003568670900860288    5    1    2    1
 5.520700481638818e-05    5    1    2    2
 -0.0001284936426106502    5    1    3    1
 0.0002996870200167438    5    1    3    2
 0.0001653530596228246    5    1    3    3
 -0.0005302846563552418    5    1    4    1
 -2.834824121395669e-05    5    1    4    2
 0.0003067777815879265    5    1    4    3
 -5.78572882866731e-05    5    1    4    4
 0.01999719387253354    5    1    5    1
 -6.367151283518999e-06    5    1    5    2
 0.0005133019817814339    5    1    5    3
 -0.0001270915365503443    5    1    5    4
 4.898661445661511e-05    5    1    5    5
 -0.0008582327717152155    5    2    1    1
 1.25457733923173e-06    5    2    2    1
 -0.000233375650655427    5    2    2    2
 0.0003108405888570697    5    2    3    1
 0.0001181391107543795    5    2    3    2
 -0.01702845767897406    5    2    3    3
 -3.898591128772222e-05    5    2    4    1
 0.0005114458256575531    5    2    4    2
 0.006022814138312988    5    2    4    3
 0.01742821080058474    5    2    4    4
 -6.367151283561252e-06    5    2    5    1
 0.04152805248947052    5    2    5    2
 -2.151499085946964e-05    5    2    5    3
 -0.0002824878146705468    5    2    5    4
 -0.0001405431355680584    5    2    5    5
 0.0002167293197943409    5    3    1    1
 -0.0005972713901020533    5    3    2    1
 -0.0002705300282098727    5    3    2    2
 -4.284221912377802e-05    5    3    3    1
 0.00859477376820394    5    3    3    2
 -4.21387458395021e-05    5    3    3    3
 -0.01605871194119858    5    3    4    1
 -0.003062145759954704    5    3    4    2
 2.378994881888802e-05    5    3    4    3
 -4.339789622707396e-05    5    3    4    4
 0.0005133019817814332    5    3    5    1
 -2.151499085948008e-05    5    3    5    2
 0.03616607472796259    5    3    5    3
 -9.070947313275322e-05    5    3    5    4
 -3.879422593892266e-05    5    3    5    5
 0.0009568816706526644    5    4    1    1
 6.550375939977592e-05    5    4    2    1
 -0.00106519199277023    5    4    2    2
 0.01578568693888994    5    4    3    1
 -0.00306157059360221    5    4    3    2
 -0.0001477933193320908    5    4    3    3
 6.154128110476974e-05    5    4    4    1
 -0.008934268001806942    5    4    4    2
 7.817650868220122e-06    5    4    4    3
 -7.782648708961739e-05    5    4    4    4
 -0.0001270915365503416    5    4    5    1
 -0.0002824878146705883    5    4    5    2
 -9.070947313275623e-05    5    4    5    3
 0.03566960133599802    5    4    5    4
 -8.74286257549406e-05    5    4    5    5
 0.9050555076049007    5    5    1    1
 1.528321973940469e-06    5    5    2    1
 0.8566457476119059    5    5    2    2
 -0.001120339315160667    5    5    3    1
 0.0002508962560931835    5    5    3    2
 0.8634679223267783    5    5    3    3
 0.0002424883124773915    5    5    4    1
 0.001153602420197001    5    5    4    2
 0.0003574065779338214    5    5    4    3
 0.8659843093067546    5    5    4    4
 4.898661445660331e-05    5    5    5    1
 -0.0001405431355679531    5    5    5    2
 -3.879422593887602e-05    5    5    5    3
 -8.742862575484439e-05    5    5    5    4
 0.9475128788773424    5    5    5    5
 -5.516033397383278    1    1  0  0
 -5.805600637301118e-05    2    1  0  0
 -5.482131303362432    2    2  0  0
 0.0004973355747488159    3    1  0  0
 -0.00121446319716833    3    2  0  0
 -5.43232231108151    3    3  0  0
 8.401412565068479e-05    4    1  0  0
 -0.003499504033154488    4    2  0  0
 -0.002160891321793147    4    3  0  0
 -5.447518788849806    4    4  0  0
 -0.0003151469207853181    5    1  0  0
 0.002191641741546259    5    2  0  0
 0.0001378939323954171    5    3  0  0
 0.0004967030719058082    5    4  0  0
 -5.5301616272962    5    5  0  0
 -4398.043023574112  0  0  0  0
