[Molden Format]
made by pyscf v[2.9.0]
[Atoms] (AU)
Co   1   27     7.45798178485173    26.29220932589135    57.98484206576837
P   2   15     6.63697137277319    30.39508820124079    52.96983207434000
S   3   16     6.21405633527390    32.71857639126014    50.25367391344502
N   4   7     6.36144363463323    27.27863313483144    52.09131729629095
N   5   7     6.83500711172311    25.50092052629997    53.94131948799152
N   6   7     4.51784005559043    30.85958477238501    55.42061410583617
N   7   7     4.48238690376746    29.06877258235805    57.35593743206087
N   8   7     9.42314199685718    30.59223765863828    54.21787901659550
N   9   7     9.94988614654457    29.30891519881553    56.47212575168466
C   10   6     7.19461065487109    23.15426051454120    53.27875316282715
H   11   1     7.11357352947137    22.64039106894048    51.59880742507617
C   12   6     7.69603058476319    21.47831343726982    55.20230727474804
N   13   7     8.12654232128322    22.42611313394992    57.63837967809062
C   14   6     8.80523178974239    20.47408840823632    59.12709080121397
H   15   1     9.26106774605773    20.56813062882530    60.81939156836734
N   16   7     8.70393491056121    18.31148016210569    57.68074733780336
H   17   1     8.98250132830947    16.80648715869308    58.22444800000647
C   18   6     8.08095834770647    18.93920371698534    55.22172799013020
H   19   1     7.94927278271615    17.84429640041234    53.85246645534060
C   20   6     6.44248264975908    26.77148355532967    49.46577528252111
H   21   1     6.16644657529161    28.30972628990400    48.54489095503319
H   22   1     5.14841331746592    25.57245799847151    49.03916772017443
H   23   1     8.06576494966496    26.08968548739559    49.03328311302253
C   24   6     2.77553524545493    29.14266087382855    59.05706510994209
H   25   1     1.50679202268320    30.35512049370623    59.00116512145133
N   26   7     4.74829215648114    25.41796343915769    60.84822878902822
C   27   6     2.85404013784774    27.35923940267476    61.00710184377265
C   28   6     1.44348052833189    26.86552388619252    63.13013166595038
H   29   1     0.07850489239281    27.81601077342176    63.70266576936211
N   30   7     2.40326864754624    24.69283962036571    64.28167596420272
H   31   1     1.82587605826826    23.98719509846575    65.62681325528612
C   32   6     4.43680293019070    23.87972070458336    62.87534178230140
H   33   1     5.44470725598872    22.49261448599949    63.25546775116216
C   34   6     2.48177353993905    32.71286374918557    55.31057724332887
H   35   1     2.76033995768731    33.83464297124989    53.91130685768118
H   36   1     2.44885262112300    33.66335252614094    56.85342335074265
H   37   1     0.89647662486304    31.85641908254532    55.09403730616722
C   38   6    11.85426709720563    29.94872922144015    57.87786655958287
H   39   1    12.97866170022634    31.22164118004267    57.42419433968016
N   40   7    10.26643983884883    26.84369377000155    60.72524352311539
C   41   6    12.09738036313093    28.58849112889534    60.12329016339643
C   42   6    13.68773985449464    28.93107012938712    62.14275732476964
H   43   1    15.07044301120827    30.01254149321446    62.21983925339064
N   44   7    12.83937943621527    27.36595737904759    64.02924256903107
H   45   1    13.49021245187223    27.21146093000765    65.50912300197433
C   46   6    10.74253365921951    26.08296751102276    63.11777285709572
H   47   1     9.81060199280737    24.89066182026356    64.00864833372556
C   48   6    11.28447309667452    32.66584358375415    53.64122342050609
H   49   1    10.85902582616832    33.43832393922773    52.05777654730604
H   50   1    12.95587160316409    31.96725340947719    53.54060306327751
H   51   1    11.22875830134397    33.91188741631761    54.95870268003036
[GTO]
1 0
 s    8 1.00
          325817.01553  0.0002398353536197
          48839.636453  0.0018596633237351
          11114.937307  0.0096709152704258
          3146.1603642   0.039315971778749
          1024.4378465    0.12799461486096
          368.02508816    0.30391910494459
          142.91229205    0.43473318053545
          56.482649209    0.22848233723692
 s    4 1.00
          356.40298318  -0.024844682079028
          110.31165215   -0.11738814789025
          17.659634834    0.55388573077371
          7.5059030479    0.53413758009873
 s    2 1.00
          11.501807176   -0.37791187256515
          1.9081994606     1.1725032128157
 s    1 1.00
         0.79396696891                   1
 s    1 1.00
         0.12444448829                   1
 s    1 1.00
        0.044444645379                   1
 p    6 1.00
          1731.1369144  0.0027113690065776
          409.91750438   0.021984010744819
          131.45648578    0.10310407884161
          48.987439714    0.29655312888033
          19.537078992     0.4781436097905
          7.9287281634    0.27869112839934
 p    3 1.00
          31.076017584  -0.020509295921844
          4.2835180697    0.38746974460797
          1.7022921563    0.67420506418877
 p    1 1.00
         0.64202908602                   1
 p    1 1.00
              0.141308                   1
 d    4 1.00
          68.140745239   0.019697336268202
          19.685241019    0.12111871584173
          6.9322128825    0.37944647925134
          2.6025125694    0.64564604205304
 d    1 1.00
         0.94016837302                   1
 d    1 1.00
         0.30381457794                   1
 d    1 1.00
                 0.098                   1
 f    1 1.00
                 1.903                   1

2 0
 s    7 1.00
          52426.999233  0.00053507947538643
          7863.2660552  0.0041364994489247
          1789.5227333   0.021256500533175
          506.27300165   0.083030425956739
          164.60698546    0.24076117245881
          58.391918722    0.44910559001006
          21.643663201    0.34262506363246
 s    3 1.00
           99.01383762   0.088204267034254
          30.550439817    0.38531708720786
          5.4537087661    -1.1865319176059
 s    2 1.00
          2.6503362563    0.68225756181266
          1.2726688867    0.33926840950353
 s    1 1.00
         0.31645005203                   1
 s    1 1.00
         0.11417466938                   1
 p    5 1.00
          472.27219248  0.0036440007221506
          111.58882756   0.028701016067512
          35.445936418    0.12979856514249
          12.990776875     0.3649504285922
          5.0486221658    0.60750156600919
 p    1 1.00
          1.9934049566                   1
 p    1 1.00
          0.6652728443                   1
 p    1 1.00
         0.25516832128                   1
 p    1 1.00
        0.090357762251                   1
 d    2 1.00
                  3.12    0.18338718207037
                 0.648    0.91693591035186
 d    1 1.00
                 0.218                   1
 f    1 1.00
                 0.452                   1

3 0
 s    7 1.00
          60700.928104  0.00052380074898383
          9102.6106854  0.0040506326779468
          2071.4166009   0.020827004167607
          586.02476821   0.081496850342531
          190.55395021    0.23749113842034
           67.63038426    0.44726171513377
          25.127306905    0.34891918437499
 s    3 1.00
           112.5746301    0.10045569886009
          34.795554217     0.4339117294696
          6.5115556215    -1.2084330586056
 s    2 1.00
          3.2399032261     0.6749812941774
          1.5477160881    0.34708795756573
 s    1 1.00
         0.40541030112                   1
 s    1 1.00
         0.14550651059                   1
 p    5 1.00
          564.36716027  0.0034886923632558
          133.42624379   0.027685126784217
          42.468271189    0.12659400175827
           15.61652758    0.36165925672941
          6.1093988469    0.61222034442135
 p    1 1.00
          2.4404160198                   1
 p    1 1.00
         0.83882201296                   1
 p    1 1.00
           0.312887469                   1
 p    1 1.00
         0.10770109004                   1
 d    2 1.00
                 3.756    0.18285197459728
                 0.812     0.9142598729864
 d    1 1.00
                 0.273                   1
 f    1 1.00
                 0.557                   1

4 0
 s    6 1.00
          19730.800647  0.00058626402628763
          2957.8958745  0.0045428820586397
          673.22133595   0.023558413450084
          190.68249494   0.094709193292923
          62.295441898    0.29719784913376
          22.654161182    0.66916246895232
 s    2 1.00
          8.9791477428    0.64596683630063
           3.686300237    0.38700574393705
 s    1 1.00
         0.84660076805                   1
 s    1 1.00
         0.33647133771                   1
 s    1 1.00
         0.13647653675                   1
 p    4 1.00
           49.20038051   0.011448825101764
          11.346790537   0.078422337970864
          3.4273972411     0.3081809473883
          1.1785525134    0.72027196368413
 p    1 1.00
         0.41642204972                   1
 p    1 1.00
         0.14260826011                   1
 d    1 1.00
                 1.654                   1
 d    1 1.00
                 0.469                   1
 f    1 1.00
                 1.093                   1

5 0
 s    6 1.00
          19730.800647  0.00058626402628763
          2957.8958745  0.0045428820586397
          673.22133595   0.023558413450084
          190.68249494   0.094709193292923
          62.295441898    0.29719784913376
          22.654161182    0.66916246895232
 s    2 1.00
          8.9791477428    0.64596683630063
           3.686300237    0.38700574393705
 s    1 1.00
         0.84660076805                   1
 s    1 1.00
         0.33647133771                   1
 s    1 1.00
         0.13647653675                   1
 p    4 1.00
           49.20038051   0.011448825101764
          11.346790537   0.078422337970864
          3.4273972411     0.3081809473883
          1.1785525134    0.72027196368413
 p    1 1.00
         0.41642204972                   1
 p    1 1.00
         0.14260826011                   1
 d    1 1.00
                 1.654                   1
 d    1 1.00
                 0.469                   1
 f    1 1.00
                 1.093                   1

6 0
 s    6 1.00
          19730.800647  0.00058626402628763
          2957.8958745  0.0045428820586397
          673.22133595   0.023558413450084
          190.68249494   0.094709193292923
          62.295441898    0.29719784913376
          22.654161182    0.66916246895232
 s    2 1.00
          8.9791477428    0.64596683630063
           3.686300237    0.38700574393705
 s    1 1.00
         0.84660076805                   1
 s    1 1.00
         0.33647133771                   1
 s    1 1.00
         0.13647653675                   1
 p    4 1.00
           49.20038051   0.011448825101764
          11.346790537   0.078422337970864
          3.4273972411     0.3081809473883
          1.1785525134    0.72027196368413
 p    1 1.00
         0.41642204972                   1
 p    1 1.00
         0.14260826011                   1
 d    1 1.00
                 1.654                   1
 d    1 1.00
                 0.469                   1
 f    1 1.00
                 1.093                   1

7 0
 s    6 1.00
          19730.800647  0.00058626402628763
          2957.8958745  0.0045428820586397
          673.22133595   0.023558413450084
          190.68249494   0.094709193292923
          62.295441898    0.29719784913376
          22.654161182    0.66916246895232
 s    2 1.00
          8.9791477428    0.64596683630063
           3.686300237    0.38700574393705
 s    1 1.00
         0.84660076805                   1
 s    1 1.00
         0.33647133771                   1
 s    1 1.00
         0.13647653675                   1
 p    4 1.00
           49.20038051   0.011448825101764
          11.346790537   0.078422337970864
          3.4273972411     0.3081809473883
          1.1785525134    0.72027196368413
 p    1 1.00
         0.41642204972                   1
 p    1 1.00
         0.14260826011                   1
 d    1 1.00
                 1.654                   1
 d    1 1.00
                 0.469                   1
 f    1 1.00
                 1.093                   1

8 0
 s    6 1.00
          19730.800647  0.00058626402628763
          2957.8958745  0.0045428820586397
          673.22133595   0.023558413450084
          190.68249494   0.094709193292923
          62.295441898    0.29719784913376
          22.654161182    0.66916246895232
 s    2 1.00
          8.9791477428    0.64596683630063
           3.686300237    0.38700574393705
 s    1 1.00
         0.84660076805                   1
 s    1 1.00
         0.33647133771                   1
 s    1 1.00
         0.13647653675                   1
 p    4 1.00
           49.20038051   0.011448825101764
          11.346790537   0.078422337970864
          3.4273972411     0.3081809473883
          1.1785525134    0.72027196368413
 p    1 1.00
         0.41642204972                   1
 p    1 1.00
         0.14260826011                   1
 d    1 1.00
                 1.654                   1
 d    1 1.00
                 0.469                   1
 f    1 1.00
                 1.093                   1

9 0
 s    6 1.00
          19730.800647  0.00058626402628763
          2957.8958745  0.0045428820586397
          673.22133595   0.023558413450084
          190.68249494   0.094709193292923
          62.295441898    0.29719784913376
          22.654161182    0.66916246895232
 s    2 1.00
          8.9791477428    0.64596683630063
           3.686300237    0.38700574393705
 s    1 1.00
         0.84660076805                   1
 s    1 1.00
         0.33647133771                   1
 s    1 1.00
         0.13647653675                   1
 p    4 1.00
           49.20038051   0.011448825101764
          11.346790537   0.078422337970864
          3.4273972411     0.3081809473883
          1.1785525134    0.72027196368413
 p    1 1.00
         0.41642204972                   1
 p    1 1.00
         0.14260826011                   1
 d    1 1.00
                 1.654                   1
 d    1 1.00
                 0.469                   1
 f    1 1.00
                 1.093                   1

10 0
 s    6 1.00
             3047.5249  0.0018347001629433
             457.36951    0.01403730124668
             103.94869   0.068842606114048
             29.210155    0.23218442062076
              9.286663    0.46794134155879
              3.163927    0.36231203217765
 s    3 1.00
             7.8682724   -0.11933240861517
             1.8812885   -0.16085421161283
             0.5442493     1.1434564825515
 s    1 1.00
             0.1687144                   1
 p    3 1.00
             7.8682724   0.068999095584993
             1.8812885    0.31642397975315
             0.5442493    0.74430825237435
 p    1 1.00
             0.1687144                   1
 d    1 1.00
                   0.8                   1

11 0
 s    3 1.00
             18.731137    0.03349459952309
             2.8253937    0.23472694665786
             0.6401217    0.81375731841339
 s    1 1.00
             0.1612778                   1

12 0
 s    6 1.00
             3047.5249  0.0018347001629433
             457.36951    0.01403730124668
             103.94869   0.068842606114048
             29.210155    0.23218442062076
              9.286663    0.46794134155879
              3.163927    0.36231203217765
 s    3 1.00
             7.8682724   -0.11933240861517
             1.8812885   -0.16085421161283
             0.5442493     1.1434564825515
 s    1 1.00
             0.1687144                   1
 p    3 1.00
             7.8682724   0.068999095584993
             1.8812885    0.31642397975315
             0.5442493    0.74430825237435
 p    1 1.00
             0.1687144                   1
 d    1 1.00
                   0.8                   1

13 0
 s    6 1.00
          19730.800647  0.00058626402628763
          2957.8958745  0.0045428820586397
          673.22133595   0.023558413450084
          190.68249494   0.094709193292923
          62.295441898    0.29719784913376
          22.654161182    0.66916246895232
 s    2 1.00
          8.9791477428    0.64596683630063
           3.686300237    0.38700574393705
 s    1 1.00
         0.84660076805                   1
 s    1 1.00
         0.33647133771                   1
 s    1 1.00
         0.13647653675                   1
 p    4 1.00
           49.20038051   0.011448825101764
          11.346790537   0.078422337970864
          3.4273972411     0.3081809473883
          1.1785525134    0.72027196368413
 p    1 1.00
         0.41642204972                   1
 p    1 1.00
         0.14260826011                   1
 d    1 1.00
                 1.654                   1
 d    1 1.00
                 0.469                   1
 f    1 1.00
                 1.093                   1

14 0
 s    6 1.00
             3047.5249  0.0018347001629433
             457.36951    0.01403730124668
             103.94869   0.068842606114048
             29.210155    0.23218442062076
              9.286663    0.46794134155879
              3.163927    0.36231203217765
 s    3 1.00
             7.8682724   -0.11933240861517
             1.8812885   -0.16085421161283
             0.5442493     1.1434564825515
 s    1 1.00
             0.1687144                   1
 p    3 1.00
             7.8682724   0.068999095584993
             1.8812885    0.31642397975315
             0.5442493    0.74430825237435
 p    1 1.00
             0.1687144                   1
 d    1 1.00
                   0.8                   1

15 0
 s    3 1.00
             18.731137    0.03349459952309
             2.8253937    0.23472694665786
             0.6401217    0.81375731841339
 s    1 1.00
             0.1612778                   1

16 0
 s    6 1.00
          19730.800647  0.00058626402628763
          2957.8958745  0.0045428820586397
          673.22133595   0.023558413450084
          190.68249494   0.094709193292923
          62.295441898    0.29719784913376
          22.654161182    0.66916246895232
 s    2 1.00
          8.9791477428    0.64596683630063
           3.686300237    0.38700574393705
 s    1 1.00
         0.84660076805                   1
 s    1 1.00
         0.33647133771                   1
 s    1 1.00
         0.13647653675                   1
 p    4 1.00
           49.20038051   0.011448825101764
          11.346790537   0.078422337970864
          3.4273972411     0.3081809473883
          1.1785525134    0.72027196368413
 p    1 1.00
         0.41642204972                   1
 p    1 1.00
         0.14260826011                   1
 d    1 1.00
                 1.654                   1
 d    1 1.00
                 0.469                   1
 f    1 1.00
                 1.093                   1

17 0
 s    3 1.00
             18.731137    0.03349459952309
             2.8253937    0.23472694665786
             0.6401217    0.81375731841339
 s    1 1.00
             0.1612778                   1

18 0
 s    6 1.00
             3047.5249  0.0018347001629433
             457.36951    0.01403730124668
             103.94869   0.068842606114048
             29.210155    0.23218442062076
              9.286663    0.46794134155879
              3.163927    0.36231203217765
 s    3 1.00
             7.8682724   -0.11933240861517
             1.8812885   -0.16085421161283
             0.5442493     1.1434564825515
 s    1 1.00
             0.1687144                   1
 p    3 1.00
             7.8682724   0.068999095584993
             1.8812885    0.31642397975315
             0.5442493    0.74430825237435
 p    1 1.00
             0.1687144                   1
 d    1 1.00
                   0.8                   1

19 0
 s    3 1.00
             18.731137    0.03349459952309
             2.8253937    0.23472694665786
             0.6401217    0.81375731841339
 s    1 1.00
             0.1612778                   1

20 0
 s    6 1.00
             3047.5249  0.0018347001629433
             457.36951    0.01403730124668
             103.94869   0.068842606114048
             29.210155    0.23218442062076
              9.286663    0.46794134155879
              3.163927    0.36231203217765
 s    3 1.00
             7.8682724   -0.11933240861517
             1.8812885   -0.16085421161283
             0.5442493     1.1434564825515
 s    1 1.00
             0.1687144                   1
 p    3 1.00
             7.8682724   0.068999095584993
             1.8812885    0.31642397975315
             0.5442493    0.74430825237435
 p    1 1.00
             0.1687144                   1
 d    1 1.00
                   0.8                   1

21 0
 s    3 1.00
             18.731137    0.03349459952309
             2.8253937    0.23472694665786
             0.6401217    0.81375731841339
 s    1 1.00
             0.1612778                   1

22 0
 s    3 1.00
             18.731137    0.03349459952309
             2.8253937    0.23472694665786
             0.6401217    0.81375731841339
 s    1 1.00
             0.1612778                   1

23 0
 s    3 1.00
             18.731137    0.03349459952309
             2.8253937    0.23472694665786
             0.6401217    0.81375731841339
 s    1 1.00
             0.1612778                   1

24 0
 s    6 1.00
             3047.5249  0.0018347001629433
             457.36951    0.01403730124668
             103.94869   0.068842606114048
             29.210155    0.23218442062076
              9.286663    0.46794134155879
              3.163927    0.36231203217765
 s    3 1.00
             7.8682724   -0.11933240861517
             1.8812885   -0.16085421161283
             0.5442493     1.1434564825515
 s    1 1.00
             0.1687144                   1
 p    3 1.00
             7.8682724   0.068999095584993
             1.8812885    0.31642397975315
             0.5442493    0.74430825237435
 p    1 1.00
             0.1687144                   1
 d    1 1.00
                   0.8                   1

25 0
 s    3 1.00
             18.731137    0.03349459952309
             2.8253937    0.23472694665786
             0.6401217    0.81375731841339
 s    1 1.00
             0.1612778                   1

26 0
 s    6 1.00
          19730.800647  0.00058626402628763
          2957.8958745  0.0045428820586397
          673.22133595   0.023558413450084
          190.68249494   0.094709193292923
          62.295441898    0.29719784913376
          22.654161182    0.66916246895232
 s    2 1.00
          8.9791477428    0.64596683630063
           3.686300237    0.38700574393705
 s    1 1.00
         0.84660076805                   1
 s    1 1.00
         0.33647133771                   1
 s    1 1.00
         0.13647653675                   1
 p    4 1.00
           49.20038051   0.011448825101764
          11.346790537   0.078422337970864
          3.4273972411     0.3081809473883
          1.1785525134    0.72027196368413
 p    1 1.00
         0.41642204972                   1
 p    1 1.00
         0.14260826011                   1
 d    1 1.00
                 1.654                   1
 d    1 1.00
                 0.469                   1
 f    1 1.00
                 1.093                   1

27 0
 s    6 1.00
             3047.5249  0.0018347001629433
             457.36951    0.01403730124668
             103.94869   0.068842606114048
             29.210155    0.23218442062076
              9.286663    0.46794134155879
              3.163927    0.36231203217765
 s    3 1.00
             7.8682724   -0.11933240861517
             1.8812885   -0.16085421161283
             0.5442493     1.1434564825515
 s    1 1.00
             0.1687144                   1
 p    3 1.00
             7.8682724   0.068999095584993
             1.8812885    0.31642397975315
             0.5442493    0.74430825237435
 p    1 1.00
             0.1687144                   1
 d    1 1.00
                   0.8                   1

28 0
 s    6 1.00
             3047.5249  0.0018347001629433
             457.36951    0.01403730124668
             103.94869   0.068842606114048
             29.210155    0.23218442062076
              9.286663    0.46794134155879
              3.163927    0.36231203217765
 s    3 1.00
             7.8682724   -0.11933240861517
             1.8812885   -0.16085421161283
             0.5442493     1.1434564825515
 s    1 1.00
             0.1687144                   1
 p    3 1.00
             7.8682724   0.068999095584993
             1.8812885    0.31642397975315
             0.5442493    0.74430825237435
 p    1 1.00
             0.1687144                   1
 d    1 1.00
                   0.8                   1

29 0
 s    3 1.00
             18.731137    0.03349459952309
             2.8253937    0.23472694665786
             0.6401217    0.81375731841339
 s    1 1.00
             0.1612778                   1

30 0
 s    6 1.00
          19730.800647  0.00058626402628763
          2957.8958745  0.0045428820586397
          673.22133595   0.023558413450084
          190.68249494   0.094709193292923
          62.295441898    0.29719784913376
          22.654161182    0.66916246895232
 s    2 1.00
          8.9791477428    0.64596683630063
           3.686300237    0.38700574393705
 s    1 1.00
         0.84660076805                   1
 s    1 1.00
         0.33647133771                   1
 s    1 1.00
         0.13647653675                   1
 p    4 1.00
           49.20038051   0.011448825101764
          11.346790537   0.078422337970864
          3.4273972411     0.3081809473883
          1.1785525134    0.72027196368413
 p    1 1.00
         0.41642204972                   1
 p    1 1.00
         0.14260826011                   1
 d    1 1.00
                 1.654                   1
 d    1 1.00
                 0.469                   1
 f    1 1.00
                 1.093                   1

31 0
 s    3 1.00
             18.731137    0.03349459952309
             2.8253937    0.23472694665786
             0.6401217    0.81375731841339
 s    1 1.00
             0.1612778                   1

32 0
 s    6 1.00
             3047.5249  0.0018347001629433
             457.36951    0.01403730124668
             103.94869   0.068842606114048
             29.210155    0.23218442062076
              9.286663    0.46794134155879
              3.163927    0.36231203217765
 s    3 1.00
             7.8682724   -0.11933240861517
             1.8812885   -0.16085421161283
             0.5442493     1.1434564825515
 s    1 1.00
             0.1687144                   1
 p    3 1.00
             7.8682724   0.068999095584993
             1.8812885    0.31642397975315
             0.5442493    0.74430825237435
 p    1 1.00
             0.1687144                   1
 d    1 1.00
                   0.8                   1

33 0
 s    3 1.00
             18.731137    0.03349459952309
             2.8253937    0.23472694665786
             0.6401217    0.81375731841339
 s    1 1.00
             0.1612778                   1

34 0
 s    6 1.00
             3047.5249  0.0018347001629433
             457.36951    0.01403730124668
             103.94869   0.068842606114048
             29.210155    0.23218442062076
              9.286663    0.46794134155879
              3.163927    0.36231203217765
 s    3 1.00
             7.8682724   -0.11933240861517
             1.8812885   -0.16085421161283
             0.5442493     1.1434564825515
 s    1 1.00
             0.1687144                   1
 p    3 1.00
             7.8682724   0.068999095584993
             1.8812885    0.31642397975315
             0.5442493    0.74430825237435
 p    1 1.00
             0.1687144                   1
 d    1 1.00
                   0.8                   1

35 0
 s    3 1.00
             18.731137    0.03349459952309
             2.8253937    0.23472694665786
             0.6401217    0.81375731841339
 s    1 1.00
             0.1612778                   1

36 0
 s    3 1.00
             18.731137    0.03349459952309
             2.8253937    0.23472694665786
             0.6401217    0.81375731841339
 s    1 1.00
             0.1612778                   1

37 0
 s    3 1.00
             18.731137    0.03349459952309
             2.8253937    0.23472694665786
             0.6401217    0.81375731841339
 s    1 1.00
             0.1612778                   1

38 0
 s    6 1.00
             3047.5249  0.0018347001629433
             457.36951    0.01403730124668
             103.94869   0.068842606114048
             29.210155    0.23218442062076
              9.286663    0.46794134155879
              3.163927    0.36231203217765
 s    3 1.00
             7.8682724   -0.11933240861517
             1.8812885   -0.16085421161283
             0.5442493     1.1434564825515
 s    1 1.00
             0.1687144                   1
 p    3 1.00
             7.8682724   0.068999095584993
             1.8812885    0.31642397975315
             0.5442493    0.74430825237435
 p    1 1.00
             0.1687144                   1
 d    1 1.00
                   0.8                   1

39 0
 s    3 1.00
             18.731137    0.03349459952309
             2.8253937    0.23472694665786
             0.6401217    0.81375731841339
 s    1 1.00
             0.1612778                   1

40 0
 s    6 1.00
          19730.800647  0.00058626402628763
          2957.8958745  0.0045428820586397
          673.22133595   0.023558413450084
          190.68249494   0.094709193292923
          62.295441898    0.29719784913376
          22.654161182    0.66916246895232
 s    2 1.00
          8.9791477428    0.64596683630063
           3.686300237    0.38700574393705
 s    1 1.00
         0.84660076805                   1
 s    1 1.00
         0.33647133771                   1
 s    1 1.00
         0.13647653675                   1
 p    4 1.00