 &FCI NORB=   5,NELEC= 7,MS2=3,
  ORBSYM=1,1,1,1,1,
  ISYM=1,
 &END
 0.9335271592953699    1    1    1    1
 0.0001374100450438482    1    1    2    1
 0.8531120290854949    1    1    2    2
 0.0002800052889903282    1    1    3    1
 0.0009966159033274649    1    1    3    2
 0.8472928959861794    1    1    3    3
 0.0002154708948872441    1    1    4    1
 -0.0001613641019949407    1    1    4    2
 -0.0003903286051015306    1    1    4    3
 0.8678539943554672    1    1    4    4
 0.000312602520162561    1    1    5    1
 0.0001906201549945561    1    1    5    2
 0.002053774489108623    1    1    5    3
 0.00872429087954495    1    1    5    4
 0.8714773379345153    1    1    5    5
 0.0001374100450439205    2    1    1    1
 0.04121529851220479    2    1    2    1
 2.417574125760832e-05    2    1    2    2
 2.791907008027185e-06    2    1    3    1
 0.0002475695629510321    2    1    3    2
 0.01039128383037822    2    1    3    3
 -0.0002425203281370107    2    1    4    1
 9.38916138327027e-05    2    1    4    2
 0.002034340706012099    2    1    4    3
 -0.009111712281809249    2    1    4    4
 -0.0003092246268810654    2    1    5    1
 3.871248967186002e-05    2    1    5    2
 -0.001622019897498506    2    1    5    3
 0.01490464880323334    2    1    5    4
 -0.001200570423105179    2    1    5    5
 0.8531120290854947    2    2    1    1
 2.417574125746356e-05    2    2    2    1
 0.9372857383000821    2    2    2    2
 -0.0001220709827474262    2    2    3    1
 0.001054501899225221    2    2    3    2
 0.8845148679321438    2    2    3    3
 2.161665784186004e-05    2    2    4    1
 -0.0006321279506604167    2    2    4    2
 -0.0003120565385890361    2    2    4    3
 0.8558401463381917    2    2    4    4
 0.0001532567496369125    2    2    5    1
 -0.0003940327157490528    2    2    5    2
 -0.001494395709506283    2    2    5    3
 -0.009118905893298878    2    2    5    4
 0.851267473910807    2    2    5    5
 0.0002800052889904521    3    1    1    1
 2.791907008011216e-06    3    1    2    1
 -0.0001220709827473007    3    1    2    2
 0.03913518983097042    3    1    3    1
 -0.005283820743601195    3    1    3    2
 0.000332616116727748    3    1    3    3
 0.0001446002123849419    3    1    4    1
 -0.00124148761783197    3    1    4    2
 -0.0001059117333585499    3    1    4    3
 -0.01631255361739323    3    1    4    4
 -0.0009727114522911438    3    1    5    1
 0.001005363225642171    3    1    5    2
 0.0006843087833524884    3    1    5    3
 -0.004205588307968915    3    1    5    4
 0.01720529385121958    3    1    5    5
 0.0009966159033275317    3    2    1    1
 0.0002475695629510354    3    2    2    1
 0.001054501899225144    3    2    2    2
 -0.005283820743601163    3    2    3    1
 0.02100672545817448    3    2    3    2
 0.001036886681439859    3    2    3    3
 -0.0008359545269400102    3    2    4    1
 0.0001082403482486832    3    2    4    2
 -0.001092500809924063    3    2    4    3
 0.005238833458092528    3    2    4    4
 0.0006428519335624872    3    2    5    1
 0.0008406755657002455    3    2    5    2
 -0.0006270235468487553    3    2    5    3
 0.001391987145155167    3    2    5    4
 -0.003660740431407574    3    2    5    5
 0.84729289598618    3    3    1    1
 0.01039128383037816    3    3    2    1
 0.8845148679321435    3    3    2    2
 0.0003326161167279119    3    3    3    1
 0.001036886681439779    3    3    3    2
 0.9158754615923284    3    3    3    3
 0.0003928537101182054    3    3    4    1
 0.001627606830151801    3    3    4    2
 -0.0001589602613747838    3    3    4    3
 0.8428056345435673    3    3    4    4
 -0.001103904323549801    3    3    5    1
 0.0008296670690542728    3    3    5    2
 0.0003499679449148543    3    3    5    3
 -0.0003642976477945372    3    3    5    4
 0.843376725473147    3    3    5    5
 0.0002154708948869489    4    1    1    1
 -0.0002425203281370245    4    1    2    1
 2.161665784204794e-05    4    1    2    2
 0.0001446002123849003    4    1    3    1
 -0.0008359545269399012    4    1    3    2
 0.0003928537101178501    4    1    3    3
 0.02633147779789297    4    1    4    1
 0.004699264527062962    4    1    4    2
 0.00823125860221348    4    1    4    3
 0.0001940284361212478    4    1    4    4
 -0.004579291650647969    4    1    5    1
 -0.007413260487458806    4    1    5    2
 0.006243937718811834    4    1    5    3
 -0.0007101103158795377    4    1    5    4
 0.0001421984506434044    4    1    5    5
 -0.0001613641019948381    4    2    1    1
 9.389161383270405e-05    4    2    2    1
 -0.0006321279506604885    4    2    2    2
 -0.001241487617831971    4    2    3    1
 0.000108240348248647    4    2    3    2
 0.001627606830151887    4    2    3    3
 0.004699264527062935    4    2    4    1
 0.03340277820445865    4    2    4    2
 -0.002164477261812504    4    2    4    3
 -0.0006199167111134658    4    2    4    4
 -0.007700635371582262    4    2    5    1
 0.004483850286357859    4    2    5    2
 0.01415192860010866    4    2    5    3
 0.0008689462914089794    4    2    5    4
 -0.003204325036965718    4    2    5    5
 -0.000390328605101327    4    3    1    1
 0.002034340706012107    4    3    2    1
 -0.000312056538589128    4    3    2    2
 -0.0001059117333585022    4    3    3    1
 -0.001092500809924134    4    3    3    2
 -0.0001589602613745768    4    3    3    3
 0.008231258602213467    4    3    4    1
 -0.002164477261812518    4    3    4    2
 0.03546599860161149    4    3    4    3
 -4.164675494360449e-05    4    3    4    4
 -0.002096028534693296    4    3    5    1
 -0.01553763512019055    4    3    5    2
 7.246260592706256e-05    4    3    5    3
 9.037926563460765e-05    4    3    5    4
 0.0004459268085240495    4    3    5    5
 0.867853994355467    4    4    1    1
 -0.009111712281809225    4    4    2    1
 0.8558401463381916    4    4    2    2
 -0.01631255361739314    4    4    3    1
 0.005238833458092454    4    4    3    2
 0.8428056345435676    4    4    3    3
 0.0001940284361212979    4    4    4    1
 -0.0006199167111134747    4    4    4    2
 -4.164675494361982e-05    4    4    4    3
 0.9083759010148345    4    4    4    4
 0.001714644834006351    4    4    5    1
 -0.002145414202001145    4    4    5    2
 -0.0002745564333073297    4    4    5    3
 1.332795949722954e-05    4    4    5    4
 0.8383892178698733    4    4    5    5
 0.0003126025201624225    5    1    1    1
 -0.0003092246268810509    5    1    2    1
 0.0001532567496368566    5    1    2    2
 -0.000972711452291129    5    1    3    1
 0.000642851933562492    5    1    3    2
 -0.001103904323549704    5    1    3    3
 -0.004579291650648032    5    1    4    1
 -0.007700635371582238    5    1    4    2
 -0.00209602853469325    5    1    4    3
 0.001714644834006343    5    1    4    4
 0.02438850660101288    5    1    5    1
 0.000658374902122861    5    1    5    2
 -0.0084325220550123    5    1    5    3
 5.223355162051126e-05    5    1    5    4
 0.0003147617639931086    5    1    5    5
 0.0001906201549945028    5    2    1    1
 3.871248967186721e-05    5    2    2    1
 -0.0003940327157490869    5    2    2    2
 0.001005363225642156    5    2    3    1
 0.0008406755657002827    5    2    3    2
 0.0008296670690543818    5    2    3    3
 -0.007413260487458853    5    2    4    1
 0.00448385028635791    5    2    4    2
 -0.01553763512019051    5    2    4    3
 -0.002145414202001017    5    2    4    4
 0.000658374902122874    5    2    5    1
 0.03567028060525344    5    2    5    2
 0.002235366710102397    5    2    5    3
 0.001219699907415499    5    2    5    4
 -0.0004244560701586794    5    2    5    5
 0.00205377448910852    5    3    1    1
 -0.001622019897498485    5    3    2    1
 -0.001494395709506353    5    3    2    2
 0.0006843087833524816    5    3    3    1
 -0.0006270235468487568    5    3    3    2
 0.0003499679449148799    5    3    3    3
 0.00624393771881182    5    3    4    1
 0.01415192860010866    5    3    4    2
 7.246260592707063e-05    5    3    4    3
 -0.0002745564333074087    5    3    4    4
 -0.008432522055012293    5    3    5    1
 0.002235366710102389    5    3    5    2
 0.03508903829311254    5    3    5    3
 -0.0002836762123730242    5    3    5    4
 4.106869008939666e-05    5    3    5    5
 0.008724290879544927    5    4    1    1
 0.01490464880323335    5    4    2    1
 -0.009118905893298898    5    4    2    2
 -0.004205588307968912    5    4    3    1
 0.001391987145155154    5    4    3    2
 -0.0003642976477945245    5    4    3    3
 -0.0007101103158795275    5    4    4    1
 0.0008689462914089783    5    4    4    2
 9.037926563459697e-05    5    4    4    3
 1.332795949719458e-05    5    4    4    4
 5.22335516205156e-05    5    4    5    1
 0.001219699907415506    5    4    5    2
 -0.0002836762123730261    5    4    5    3
 0.03414475576723629    5    4    5    4
 -0.0006643932220294811    5    4    5    5
 0.8714773379345148    5    5    1    1
 -0.001200570423105025    5    5    2    1
 0.8512674739108066    5    5    2    2
 0.0172052938512196    5    5    3    1
 -0.00366074043140748    5    5    3    2
 0.8433767254731468    5    5    3    3
 0.0001421984506433434    5    5    4    1
 -0.003204325036965656    5    5    4    2
 0.0004459268085240745    5    5    4    3
 0.8383892178698733    5    5    4    4
 0.0003147617639930739    5    5    5    1
 -0.0004244560701586559    5    5    5    2
 4.106869008949077e-05    5    5    5    3
 -0.0006643932220294856    5    5    5    4
 0.9080695107670489    5    5    5    5
 -5.458281521890334    1    1  0  0
 0.003519596069082216    2    1  0  0
 -5.463750695075306    2    2  0  0
 -0.00104517623526035    3    1  0  0
 -0.005649211335656807    3    2  0  0
 -5.400972412326329    3    3  0  0
 -0.0009078791455946762    4    1  0  0
 0.002935581425593097    4    2  0  0
 0.001145542756311262    4    3  0  0
 -5.368532455004314    4    4  0  0
 -0.001511500845052767    5    1  0  0
 0.001476379501654583    5    2  0  0
 -0.001093848883785287    5    3  0  0
 0.001393254314176662    5    4  0  0
 -5.366400780359083    5    5  0  0
 -2370.496009768307  0  0  0  0
