[Molden Format]
made by pyscf v[2.9.0]
[Atoms] (AU)
Co   1   27     0.16278100837003    22.90021140353305     7.17931521161886
N   2   7    -1.94806197003039    22.83286156445355     3.74728911049003
N   3   7    -3.70182229993299    22.95595832420772     8.29850550889252
N   4   7    -5.10271407059556    22.83938111958330    10.41229646004726
H   5   1    -4.48673894303234    22.99577485365231    11.94979653225464
N   6   7     2.23125632705771    20.12274863743106     5.11403353008171
N   7   7     0.96022653567524    19.86790017227222     9.79121907194771
N   8   7     0.51323071817063    19.22276657060695    12.20475838098096
H   9   1    -0.38144121824346    20.14302539874765    13.25996255167685
N   10   7     2.62063439502434    25.28449775215804     5.08001845983954
N   11   7     1.61101041845296    25.61756198161263     9.84949822562930
N   12   7     1.61975985040970    26.04401647614323    12.36776615648594
H   13   1     0.60004473633314    25.29462668418570    13.44521240366796
O   14   8    -0.87447076414248    22.82201453649855     1.35765483693252
O   15   8     2.88298507289770    20.35915337561415     2.59574670196381
O   16   8     3.10393185138185    24.99994279232103     2.56139148101922
B   17   5     1.96365221055805    22.72425900407480     1.36406100849480
C   18   6    -6.03262939923278    22.23190975958062     1.57623945776096
H   19   1    -5.78144700275560    23.62569616001482     0.38395455398913
H   20   1    -7.80014693532222    22.19933088119312     2.12860640397133
H   21   1    -5.61808017928695    20.62813699218474     0.74770793570666
C   22   6    -4.36371777232315    22.59031521636563     3.80250690784982
C   23   6    -5.34053610337208    22.61565644369604     6.37907288964930
C   24   6    -7.79115183896929    22.30793344157187     7.31201178008582
H   25   1    -9.29573288208675    22.05089289410853     6.36559914238115
C   26   6    -7.56483823829138    22.45274315449729     9.89530518688875
H   27   1    -8.89531881355266    22.30793344157187    11.09095380316231
C   28   6     4.63379743004599    16.16800539298628     4.90049447800586
H   29   1     6.17475570106132    16.94636468643338     4.23026531340637
H   30   1     3.65977589366142    15.42948152624501     3.50950487223600
H   31   1     5.09164027550561    14.83937674932708     6.10625312904584
C   32   6     3.08856837798914    18.11568941779176     6.19382303765818
C   33   6     2.36177971048141    17.96727032796841     8.85794003080876
C   34   6     2.81342425425246    16.13179824043962    10.69016178940331
H   35   1     3.75333623408863    14.61130570335332    10.51163936241565
C   36   6     1.59233992434226    17.00428479215130    12.82549561837809
H   37   1     1.52648296890117    16.19334662031670    14.42529996091238
C   38   6     6.00356541143697    28.43701446220246     4.97122692684833
H   39   1     5.28771825819048    29.39274344970124     3.56001725154563
H   40   1     7.31231413626575    27.28938378675409     4.34140010679204
H   41   1     6.74815529903810    29.60633919356082     6.19718675015991
C   42   6     3.97645619761603    26.94908190624242     6.21402420992978
C   43   6     3.44111568378800    27.11562346960033     8.92867247965123
C   44   6     4.59817609259794    28.47320271748788    10.86866531912973
H   45   1     5.94989718949933    29.64617462026665    10.72383670894306
C   46   6     3.37098794730539    27.74915415286077    13.01747289537266
H   47   1     3.70165222458178    28.34649658083579    14.67791854924424
C   48   6     2.90711687550840    22.59755286742271    -1.50550700891849
C   49   6     2.38587371856962    20.48695555341848    -3.00092288033181
H   50   1     1.43509581351720    19.13659505932678    -2.30036361143305
C   51   6     3.21699416541458    20.30593868794640    -5.48317263125425
H   52   1     2.81554074751198    18.85784155869219    -6.46664279826164
C   53   6     4.64177207429165    22.25725098691104    -6.52051889007299
H   54   1     5.25944795536699    22.12691657609978    -8.20116571621618
C   55   6     5.15428469653494    24.37508595197234    -5.10594550226857
H   56   1     6.08758263493514    25.72544644606405    -5.83345226570363
C   57   6     4.32195482497026    24.55249344054651    -2.62707836110910
H   58   1     4.71375174237634    26.02230352297197    -1.67055568863801
[GTO]
1 0
 s    8 1.00
          325817.01553  0.0002398353536197
          48839.636453  0.0018596633237351
          11114.937307  0.0096709152704258
          3146.1603642   0.039315971778749
          1024.4378465    0.12799461486096
          368.02508816    0.30391910494459
          142.91229205    0.43473318053545
          56.482649209    0.22848233723692
 s    4 1.00
          356.40298318  -0.024844682079028
          110.31165215   -0.11738814789025
          17.659634834    0.55388573077371
          7.5059030479    0.53413758009873
 s    2 1.00
          11.501807176   -0.37791187256515
          1.9081994606     1.1725032128157
 s    1 1.00
         0.79396696891                   1
 s    1 1.00
         0.12444448829                   1
 s    1 1.00
        0.044444645379                   1
 p    6 1.00
          1731.1369144  0.0027113690065776
          409.91750438   0.021984010744819
          131.45648578    0.10310407884161
          48.987439714    0.29655312888033
          19.537078992     0.4781436097905
          7.9287281634    0.27869112839934
 p    3 1.00
          31.076017584  -0.020509295921844
          4.2835180697    0.38746974460797
          1.7022921563    0.67420506418877
 p    1 1.00
         0.64202908602                   1
 p    1 1.00
              0.141308                   1
 d    4 1.00
          68.140745239   0.019697336268202
          19.685241019    0.12111871584173
          6.9322128825    0.37944647925134
          2.6025125694    0.64564604205304
 d    1 1.00
         0.94016837302                   1
 d    1 1.00
         0.30381457794                   1
 d    1 1.00
                 0.098                   1
 f    1 1.00
                 1.903                   1

2 0
 s    6 1.00
          19730.800647  0.00058626402628763
          2957.8958745  0.0045428820586397
          673.22133595   0.023558413450084
          190.68249494   0.094709193292923
          62.295441898    0.29719784913376
          22.654161182    0.66916246895232
 s    2 1.00
          8.9791477428    0.64596683630063
           3.686300237    0.38700574393705
 s    1 1.00
         0.84660076805                   1
 s    1 1.00
         0.33647133771                   1
 s    1 1.00
         0.13647653675                   1
 p    4 1.00
           49.20038051   0.011448825101764
          11.346790537   0.078422337970864
          3.4273972411     0.3081809473883
          1.1785525134    0.72027196368413
 p    1 1.00
         0.41642204972                   1
 p    1 1.00
         0.14260826011                   1
 d    1 1.00
                 1.654                   1
 d    1 1.00
                 0.469                   1
 f    1 1.00
                 1.093                   1

3 0
 s    6 1.00
          19730.800647  0.00058626402628763
          2957.8958745  0.0045428820586397
          673.22133595   0.023558413450084
          190.68249494   0.094709193292923
          62.295441898    0.29719784913376
          22.654161182    0.66916246895232
 s    2 1.00
          8.9791477428    0.64596683630063
           3.686300237    0.38700574393705
 s    1 1.00
         0.84660076805                   1
 s    1 1.00
         0.33647133771                   1
 s    1 1.00
         0.13647653675                   1
 p    4 1.00
           49.20038051   0.011448825101764
          11.346790537   0.078422337970864
          3.4273972411     0.3081809473883
          1.1785525134    0.72027196368413
 p    1 1.00
         0.41642204972                   1
 p    1 1.00
         0.14260826011                   1
 d    1 1.00
                 1.654                   1
 d    1 1.00
                 0.469                   1
 f    1 1.00
                 1.093                   1

4 0
 s    6 1.00
          19730.800647  0.00058626402628763
          2957.8958745  0.0045428820586397
          673.22133595   0.023558413450084
          190.68249494   0.094709193292923
          62.295441898    0.29719784913376
          22.654161182    0.66916246895232
 s    2 1.00
          8.9791477428    0.64596683630063
           3.686300237    0.38700574393705
 s    1 1.00
         0.84660076805                   1
 s    1 1.00
         0.33647133771                   1
 s    1 1.00
         0.13647653675                   1
 p    4 1.00
           49.20038051   0.011448825101764
          11.346790537   0.078422337970864
          3.4273972411     0.3081809473883
          1.1785525134    0.72027196368413
 p    1 1.00
         0.41642204972                   1
 p    1 1.00
         0.14260826011                   1
 d    1 1.00
                 1.654                   1
 d    1 1.00
                 0.469                   1
 f    1 1.00
                 1.093                   1

5 0
 s    3 1.00
             18.731137    0.03349459952309
             2.8253937    0.23472694665786
             0.6401217    0.81375731841339
 s    1 1.00
             0.1612778                   1

6 0
 s    6 1.00
          19730.800647  0.00058626402628763
          2957.8958745  0.0045428820586397
          673.22133595   0.023558413450084
          190.68249494   0.094709193292923
          62.295441898    0.29719784913376
          22.654161182    0.66916246895232
 s    2 1.00
          8.9791477428    0.64596683630063
           3.686300237    0.38700574393705
 s    1 1.00
         0.84660076805                   1
 s    1 1.00
         0.33647133771                   1
 s    1 1.00
         0.13647653675                   1
 p    4 1.00
           49.20038051   0.011448825101764
          11.346790537   0.078422337970864
          3.4273972411     0.3081809473883
          1.1785525134    0.72027196368413
 p    1 1.00
         0.41642204972                   1
 p    1 1.00
         0.14260826011                   1
 d    1 1.00
                 1.654                   1
 d    1 1.00
                 0.469                   1
 f    1 1.00
                 1.093                   1

7 0
 s    6 1.00
          19730.800647  0.00058626402628763
          2957.8958745  0.0045428820586397
          673.22133595   0.023558413450084
          190.68249494   0.094709193292923
          62.295441898    0.29719784913376
          22.654161182    0.66916246895232
 s    2 1.00
          8.9791477428    0.64596683630063
           3.686300237    0.38700574393705
 s    1 1.00
         0.84660076805                   1
 s    1 1.00
         0.33647133771                   1
 s    1 1.00
         0.13647653675                   1
 p    4 1.00
           49.20038051   0.011448825101764
          11.346790537   0.078422337970864
          3.4273972411     0.3081809473883
          1.1785525134    0.72027196368413
 p    1 1.00
         0.41642204972                   1
 p    1 1.00
         0.14260826011                   1
 d    1 1.00
                 1.654                   1
 d    1 1.00
                 0.469                   1
 f    1 1.00
                 1.093                   1

8 0
 s    6 1.00
          19730.800647  0.00058626402628763
          2957.8958745  0.0045428820586397
          673.22133595   0.023558413450084
          190.68249494   0.094709193292923
          62.295441898    0.29719784913376
          22.654161182    0.66916246895232
 s    2 1.00
          8.9791477428    0.64596683630063
           3.686300237    0.38700574393705
 s    1 1.00
         0.84660076805                   1
 s    1 1.00
         0.33647133771                   1
 s    1 1.00
         0.13647653675                   1
 p    4 1.00
           49.20038051   0.011448825101764
          11.346790537   0.078422337970864
          3.4273972411     0.3081809473883
          1.1785525134    0.72027196368413
 p    1 1.00
         0.41642204972                   1
 p    1 1.00
         0.14260826011                   1
 d    1 1.00
                 1.654                   1
 d    1 1.00
                 0.469                   1
 f    1 1.00
                 1.093                   1

9 0
 s    3 1.00
             18.731137    0.03349459952309
             2.8253937    0.23472694665786
             0.6401217    0.81375731841339
 s    1 1.00
             0.1612778                   1

10 0
 s    6 1.00
          19730.800647  0.00058626402628763
          2957.8958745  0.0045428820586397
          673.22133595   0.023558413450084
          190.68249494   0.094709193292923
          62.295441898    0.29719784913376
          22.654161182    0.66916246895232
 s    2 1.00
          8.9791477428    0.64596683630063
           3.686300237    0.38700574393705
 s    1 1.00
         0.84660076805                   1
 s    1 1.00
         0.33647133771                   1
 s    1 1.00
         0.13647653675                   1
 p    4 1.00
           49.20038051   0.011448825101764
          11.346790537   0.078422337970864
          3.4273972411     0.3081809473883
          1.1785525134    0.72027196368413
 p    1 1.00
         0.41642204972                   1
 p    1 1.00
         0.14260826011                   1
 d    1 1.00
                 1.654                   1
 d    1 1.00
                 0.469                   1
 f    1 1.00
                 1.093                   1

11 0
 s    6 1.00
          19730.800647  0.00058626402628763
          2957.8958745  0.0045428820586397
          673.22133595   0.023558413450084
          190.68249494   0.094709193292923
          62.295441898    0.29719784913376
          22.654161182    0.66916246895232
 s    2 1.00
          8.9791477428    0.64596683630063
           3.686300237    0.38700574393705
 s    1 1.00
         0.84660076805                   1
 s    1 1.00
         0.33647133771                   1
 s    1 1.00
         0.13647653675                   1
 p    4 1.00
           49.20038051   0.011448825101764
          11.346790537   0.078422337970864
          3.4273972411     0.3081809473883
          1.1785525134    0.72027196368413
 p    1 1.00
         0.41642204972                   1
 p    1 1.00
         0.14260826011                   1
 d    1 1.00
                 1.654                   1
 d    1 1.00
                 0.469                   1
 f    1 1.00
                 1.093                   1

12 0
 s    6 1.00
          19730.800647  0.00058626402628763
          2957.8958745  0.0045428820586397
          673.22133595   0.023558413450084
          190.68249494   0.094709193292923
          62.295441898    0.29719784913376
          22.654161182    0.66916246895232
 s    2 1.00
          8.9791477428    0.64596683630063
           3.686300237    0.38700574393705
 s    1 1.00
         0.84660076805                   1
 s    1 1.00
         0.33647133771                   1
 s    1 1.00
         0.13647653675                   1
 p    4 1.00
           49.20038051   0.011448825101764
          11.346790537   0.078422337970864
          3.4273972411     0.3081809473883
          1.1785525134    0.72027196368413
 p    1 1.00
         0.41642204972                   1
 p    1 1.00
         0.14260826011                   1
 d    1 1.00
                 1.654                   1
 d    1 1.00
                 0.469                   1
 f    1 1.00
                 1.093                   1

13 0
 s    3 1.00
             18.731137    0.03349459952309
             2.8253937    0.23472694665786
             0.6401217    0.81375731841339
 s    1 1.00
             0.1612778                   1

14 0
 s    6 1.00
             5484.6717   0.001831099805527
             825.23495   0.013950098518422
             188.04696    0.06844509273075
               52.9645    0.23271427528445
              16.89757    0.47019295006289
             5.7996353    0.35852086192309
 s    3 1.00
             15.539616   -0.11077750382508
             3.5999336   -0.14802630511126
             1.0137618     1.1307670390447
 s    1 1.00
             0.2700058                   1
 p    3 1.00
             15.539616   0.070874299543311
             3.5999336    0.33975279781076
             1.0137618    0.72715859531445
 p    1 1.00
             0.2700058                   1
 d    1 1.00
                   0.8                   1

15 0
 s    6 1.00
             5484.6717   0.001831099805527
             825.23495   0.013950098518422
             188.04696    0.06844509273075
               52.9645    0.23271427528445
              16.89757    0.47019295006289
             5.7996353    0.35852086192309
 s    3 1.00
             15.539616   -0.11077750382508
             3.5999336   -0.14802630511126
             1.0137618     1.1307670390447
 s    1 1.00
             0.2700058                   1
 p    3 1.00
             15.539616   0.070874299543311
             3.5999336    0.33975279781076
             1.0137618    0.72715859531445
 p    1 1.00
             0.2700058                   1
 d    1 1.00
                   0.8                   1

16 0
 s    6 1.00
             5484.6717   0.001831099805527
             825.23495   0.013950098518422
             188.04696    0.06844509273075
               52.9645    0.23271427528445
              16.89757    0.47019295006289
             5.7996353    0.35852086192309
 s    3 1.00
             15.539616   -0.11077750382508
             3.5999336   -0.14802630511126
             1.0137618     1.1307670390447
 s    1 1.00
             0.2700058                   1
 p    3 1.00
             15.539616   0.070874299543311
             3.5999336    0.33975279781076
             1.0137618    0.72715859531445
 p    1 1.00
             0.2700058                   1
 d    1 1.00
                   0.8                   1

17 0
 s    6 1.00
             2068.8823  0.0018663001400251
             310.64957   0.014251501069264
             70.683033   0.069551605218329
              19.86108    0.23257291744952
             6.2993048    0.46707873504406
              2.127027    0.36343142726759
 s    3 1.00
              4.727971   -0.13039380717562
             1.1903377   -0.13078890719736
             0.3594117     1.1309444622363
 s    1 1.00
             0.1267512                   1
 p    3 1.00
              4.727971   0.074597599804218
             1.1903377    0.30784669919205
             0.3594117    0.74345679804879
 p    1 1.00
             0.1267512                   1
 d    1 1.00
                   0.6                   1

18 0
 s    6 1.00
             3047.5249  0.0018347001629433
             457.36951    0.01403730124668
             103.94869   0.068842606114048
             29.210155    0.23218442062076
              9.286663    0.46794134155879
              3.163927    0.36231203217765
 s    3 1.00
             7.8682724   -0.11933240861517
             1.8812885   -0.16085421161283
             0.5442493     1.1434564825515
 s    1 1.00
             0.1687144                   1
 p    3 1.00
             7.8682724   0.068999095584993
             1.8812885    0.31642397975315
             0.5442493    0.74430825237435
 p    1 1.00
             0.1687144                   1
 d    1 1.00
                   0.8                   1

19 0
 s    3 1.00
             18.731137    0.03349459952309
             2.8253937    0.23472694665786
             0.6401217    0.81375731841339
 s    1 1.00
             0.1612778                   1

20 0
 s    3 1.00
             18.731137    0.03349459952309
             2.8253937    0.23472694665786
             0.6401217    0.81375731841339
 s    1 1.00
             0.1612778                   1

21 0
 s    3 1.00
             18.731137    0.03349459952309
             2.8253937    0.23472694665786
             0.6401217    0.81375731841339
 s    1 1.00
             0.1612778                   1

22 0
 s    6 1.00
             3047.5249  0.0018347001629433
             457.36951    0.01403730124668
             103.94869   0.068842606114048
             29.210155    0.23218442062076
              9.286663    0.46794134155879
              3.163927    0.36231203217765
 s    3 1.00
             7.8682724   -0.11933240861517
             1.8812885   -0.16085421161283
             0.5442493     1.1434564825515
 s    1 1.00
             0.1687144                   1
 p    3 1.00
             7.8682724   0.068999095584993
             1.8812885    0.31642397975315
             0.5442493    0.74430825237435
 p    1 1.00
             0.1687144                   1
 d    1 1.00
                   0.8                   1

23 0
 s    6 1.00
             3047.5249  0.0018347001629433
             457.36951    0.01403730124668
             103.94869   0.068842606114048
             29.210155    0.23218442062076
              9.286663    0.46794134155879
              3.163927    0.36231203217765
 s    3 1.00
             7.8682724   -0.11933240861517
             1.8812885   -0.16085421161283
             0.5442493     1.1434564825515
 s    1 1.00
             0.1687144                   1
 p    3 1.00
             7.8682724   0.068999095584993
             1.8812885    0.31642397975315
             0.5442493    0.74430825237435
 p    1 1.00
             0.1687144                   1
 d    1 1.00
                   0.8                   1

24 0
 s    6 1.00
             3047.5249  0.0018347001629433
             457.36951    0.01403730124668
             103.94869   0.068842606114048
             29.210155    0.23218442062076
              9.286663    0.46794134155879
              3.163927    0.36231203217765
 s    3 1.00
             7.8682724   -0.11933240861517
             1.8812885   -0.16085421161283
             0.5442493     1.1434564825515
 s    1 1.00
             0.1687144                   1
 p    3 1.00
             7.8682724   0.068999095584993
             1.8812885    0.31642397975315
             0.5442493    0.74430825237435
 p    1 1.00
             0.1687144                   1
 d    1 1.00
                   0.8                   1

25 0
 s    3 1.00
             18.731137    0.03349459952309
             2.8253937    0.23472694665786
             0.6401217    0.81375731841339
 s    1 1.00
             0.1612778                   1

26 0
 s    6 1.00
             3047.5249  0.0018347001629433
             457.36951    0.01403730124668
             103.94869   0.068842606114048
             29.210155    0.23218442062076
              9.286663    0.46794134155879
              3.163927    0.36231203217765
 s    3 1.00
             7.8682724   -0.11933240861517
             1.8812885   -0.16085421161283
             0.5442493     1.1434564825515
 s    1 1.00
             0.1687144                   1
 p    3 1.00
             7.8682724   0.068999095584993
             1.8812885    0.31642397975315
             0.5442493    0.74430825237435
 p    1 1.00
             0.1687144                   1
 d    1 1.00
                   0.8                   1

27 0
 s    3 1.00
             18.731137    0.03349459952309
             2.8253937    0.23472694665786
             0.6401217    0.81375731841339
 s    1 1.00
             0.1612778                   1

28 0
 s    6 1.00
             3047.5249  0.0018347001629433
             457.36951    0.01403730124668
             103.94869   0.068842606114048
             29.210155    0.23218442062076
              9.286663    0.46794134155879
              3.163927    0.36231203217765
 s    3 1.00
             7.8682724   -0.11933240861517
             1.8812885   -0.16085421161283
             0.5442493     1.1434564825515
 s    1 1.00
             0.1687144                   1
 p    3 1.00
             7.8682724   0.068999095584993
             1.8812885    0.31642397975315
             0.5442493    0.74430825237435
 p    1 1.00
             0.1687144                   1
 d    1 1.00
                   0.8                   1

29 0
 s    3 1.00
             18.731137    0.03349459952309
             2.8253937    0.23472694665786
             0.6401217    0.81375731841339
 s    1 1.00
             0.1612778                   1

30 0
 s    3 1.00
             18.731137    0.03349459952309
             2.8253937    0.23472694665786
             0.6401217    0.81375731841339
 s    1 1.00
             0.1612778                   1

31 0
 s    3 1.00
             18.731137    0.03349459952309
             2.8253937    0.23472694665786
             0.6401217    0.81375731841339
 s    1 1.00
             0.1612778                   1

32 0
 s    6 1.00
             3047.5249  0.0018347001629433
             457.36951    0.01403730124668
             103.94869   0.068842606114048
             29.210155    0.23218442062076
              9.286663    0.46794134155879
              3.163927    0.36231203217765
 s    3 1.00
             7.8682724   -0.11933240861517
             1.8812885   -0.16085421161283
             0.5442493     1.1434564825515
 s    1 1.00
             0.1687144                   1
 p    3 1.00
             7.8682724   0.068999095584993
             1.8812885    0.31642397975315
             0.5442493    0.74430825237435
 p    1 1.00
             0.1687144                   1
 d    1 1.00
                   0.8                   1

33 0
 s    6 1.00
             3047.5249  0.0018347001629433
             457.36951    0.01403730124668
             103.94869   0.068842606114048
             29.210155    0.23218442062076
              9.286663    0.46794134155879
              3.163927    0.36231203217765
 s    3 1.00
             7.8682724   -0.11933240861517
             1.8812885   -0.16085421161283
             0.5442493     1.1434564825515
 s    1 1.00
             0.1687144                   1
 p    3 1.00
             7.8682724   0.068999095584993
             1.8812885    0.31642397975315
             0.5442493    0.74430825237435
 p    1 1.00
             0.1687144                   1
 d    1 1.00
                   0.8                   1

34 0
 s    6 1.00
             3047.5249  0.0018347001629433
             457.36951    0.01403730124668
             103.94869   0.068842606114048
             29.210155    0.23218442062076
              9.286663    0.46794134155879
              3.163927    0.36231203217765
 s    3 1.00
             7.8682724   -0.11933240861517
             1.8812885   -0.16085421161283
             0.5442493     1.1434564825515
 s    1 1.00
             0.1687144                   1
 p    3 1.00
             7.8682724   0.068999095584993
             1.8812885    0.31642397975315
             0.5442493    0.74430825237435
 p    1 1.00
             0.1687144                   1
 d    1 1.00
                   0.8                   1

35 0
 s    3 1.00
             18.731137    0.03349459952309
             2.8253937    0.23472694665786
             0.6401217    0.81375731841339
 s    1 1.00
             0.1612778                   1

36 0
 s    6 1.00
             3047.5249  0.0018347001629433
             457.36951    0.01403730124668
             103.94869   0.068842606114048
             29.210155    0.23218442062076
              9.286663    0.46794134155879
              3.163927    0.36231203217765
 s    3 1.00
             7.8682724   -0.11933240861517
             1.8812885   -0.16085421161283
             0.5442493     1.1434564825515
 s    1 1.00
             0.1687144                   1
 p    3 1.00
             7.8682724   0.068999095584993
             1.8812885    0.31642397975315
             0.5442493    0.74430825237435
 p    1 1.00
             0.1687144                   1
 d    1 1.00
                   0.8                   1

37 0
 s    3 1.00
             18.731137    0.03349459952309
             2.8253937    0.23472694665786
             0.6401217    0.81375731841339
 s    1 1.00
             0.1612778                   1

38 0
 s    6 1.00
             3047.5249  0.0018347001629433
             457.36951    0.01403730124668
             103.94869   0.068842606114048
             29.210155    0.23218442062076
              9.286663    0.46794134155879
              3.163927    0.36231203217765
 s    3 1.00
             7.8682724   -0.11933240861517
             1.8812885   -0.16085421161283
             0.5442493     1.1434564825515
 s    1 1.00
             0.1687144                   1
 p    3 1.00
             7.8682724   0.068999095584993
             1.8812885    0.31642397975315
             0.5442493    0.74430825237435
 p    1 1.00
             0.1687144                   1
 d    1 1.00
                   0.8                   1

39 0
 s    3 1.00
             18.731137    0.03349459952309
             2.8253937    0.23472694665786
             0.6401217    0.81375731841339
 s    1 1.00
             0.1612778                   1

40 0
 s    3 1.00
             18.731137    0.03349459952309
             2.8253937    0.23472694665786
             0.6401217    0.81375731841339
 s    1 1.00
             0.1612778                   1

41 0
 s    3 1.00
             18.731137    0.03349459952309
             2.8253937    0.23472694665786
             0.6401217    0.81375731841339
 s    1 1.00
             0.1612778                   1

42 0
 s    6 1.00
             3047.5249  0.0018347001629433
             457.36951    0.01403730124668
             103.94869   0.068842606114048
             29.210155    0.23218442062076
              9.286663    0.46794134155879
              3.163927    0.36231203217765
 s    3 1.00
             7.8682724   -0.11933240861517
             1.8812885   -0.16085421161283
             0.5442493     1.1434564825515
 s    1 1.00
             0.1687144                   1
 p    3 1.00
             7.8682724   0.068999095584993
             1.8812885    0.31642397975315
             0.5442493    0.74430825237435