 &FCI NORB=  22,NELEC=29,MS2=3,
  ORBSYM=1,1,1,1,1,1,1,1,1,1,1,1,1,1,1,1,1,1,1,1,1,1,
  ISYM=1,
 &END
 0.2639032923932482    1    1    1    1
 0.005007990351205409    1    1    2    1
 0.2675275486083739    1    1    2    2
 0.01105645368827968    1    1    3    1
 -0.002005916363856412    1    1    3    2
 0.2817512551835065    1    1    3    3
 0.0283356210487462    1    1    4    1
 -5.825430441557668e-05    1    1    4    2
 0.005349234035096654    1    1    4    3
 0.1761966929363297    1    1    4    4
 1.75556881436458e-05    1    1    5    1
 0.007343285440871474    1    1    5    2
 -0.0006142698150205546    1    1    5    3
 0.0006213037677314463    1    1    5    4
 0.1872201102730389    1    1    5    5
 0.0009674478108298106    1    1    6    1
 0.002888999151802072    1    1    6    2
 0.02237653555038462    1    1    6    3
 0.001595691521252667    1    1    6    4
 -0.001132053726735714    1    1    6    5
 0.1780818657438458    1    1    6    6
 0.001136578856698494    1    1    7    1
 0.01573053121571215    1    1    7    2
 -0.004989492982552864    1    1    7    3
 0.0003719784789549711    1    1    7    4
 -0.01173034718102224    1    1    7    5
 0.003274811675344715    1    1    7    6
 0.1921900165333211    1    1    7    7
 0.0006008056887934906    1    1    8    1
 -0.01274815477275157    1    1    8    2
 -0.0007651668556918827    1    1    8    3
 -0.001462754242905806    1    1    8    4
 0.009804377470701515    1    1    8    5
 0.007247362823898904    1    1    8    6
 0.007464725521783732    1    1    8    7
 0.1924104801979886    1    1    8    8
 0.0009169750604826879    1    1    9    1
 0.001853973303610262    1    1    9    2
 -0.004185471084798278    1    1    9    3
 0.0002912851508620797    1    1    9    4
 -0.001129715213897252    1    1    9    5
 0.01543935997347801    1    1    9    6
 -0.003339049376535801    1    1    9    7
 0.005912421847807063    1    1    9    8
 0.1920283161818239    1    1    9    9
 -0.0009474782836488203    1    1   10    1
 -0.009651198303760869    1    1   10    2
 -0.00037438815985234    1    1   10    3
 -0.00140936872039067    1    1   10    4
 -0.02906479605984931    1    1   10    5
 0.001672891083490053    1    1   10    6
 0.01938264854630469    1    1   10    7
 -0.008283331553292514    1    1   10    8
 -0.00351521039462392    1    1   10    9
 0.1997686466781064    1    1   10   10
 -0.001997595974370239    1    1   11    1
 0.0009504325723220387    1    1   11    2
 -0.005006183009495135    1    1   11    3
 -0.002095112238572154    1    1   11    4
 0.00556834544603596    1    1   11    5
 -0.01633198507336671    1    1   11    6
 0.001235991955095908    1    1   11    7
 -0.003900257038736793    1    1   11    8
 -0.02661265861507802    1    1   11    9
 -0.00289181838784866    1    1   11   10
 0.1785365883938027    1    1   11   11
 -0.0003051059377901442    1    1   12    1
 0.0005376768007982523    1    1   12    2
 1.021837162683408e-05    1    1   12    3
 0.000200555606685222    1    1   12    4
 0.005073368871890535    1    1   12    5
 -0.0009287832094445376    1    1   12    6
 -0.004870932328608981    1    1   12    7
 0.002720475535980165    1    1   12    8
 -0.0003383986371157847    1    1   12    9
 0.00301615803998889    1    1   12   10
 -0.0002295318204898186    1    1   12   11
 0.2617216373770404    1    1   12   12
 -0.001788261851051935    1    1   13    1
 0.0001930584178413241    1    1   13    2
 0.0002258536851981181    1    1   13    3
 -0.002459386789537101    1    1   13    4
 5.399286629003761e-05    1    1   13    5
 0.0003045305713558645    1    1   13    6
 -0.0002409056822329811    1    1   13    7
 0.0003217024352818044    1    1   13    8
 0.0003167425899570869    1    1   13    9
 0.0002161634482129765    1    1   13   10
 0.0003896650465809413    1    1   13   11
 9.451680374155965e-05    1    1   13   12
 0.2639672044421009    1    1   13   13
 -0.001030734272410958    1    1   14    1
 0.0004810152261141871    1    1   14    2
 -0.002405384401597707    1    1   14    3
 0.0004719731793719167    1    1   14    4
 -0.0005479329687841296    1    1   14    5
 0.001597257703702751    1    1   14    6
 -0.0006988043410837963    1    1   14    7
 0.0007394573615926107    1    1   14    8
 0.006040062245641864    1    1   14    9
 0.0005090213916392139    1    1   14   10
 0.004869454686347745    1    1   14   11
 3.066663699935657e-05    1    1   14   12
 -0.0001513391315358627    1    1   14   13
 0.2615997522272523    1    1   14   14
 -0.001167948231327919    1    1   15    1
 -0.000688985367807828    1    1   15    2
 -0.002980059217422898    1    1   15    3
 0.0001215465709791334    1    1   15    4
 0.0004743388484593992    1    1   15    5
 0.005672145693805533    1    1   15    6
 0.0006537624270683517    1    1   15    7
 -0.00217193603704308    1    1   15    8
 -0.007447595676882687    1    1   15    9
 -0.001024487975676531    1    1   15   10
 -0.003270027629547846    1    1   15   11
 -4.622294591012185e-05    1    1   15   12
 -0.0001762573645950547    1    1   15   13
 0.001221485124547018    1    1   15   14
 0.2633764876725272    1    1   15   15
 -0.0003831548088166158    1    1   16    1
 -0.004039409007026697    1    1   16    2
 0.000747436387938762    1    1   16    3
 -0.0001877101691307501    1    1   16    4
 0.002305143488784991    1    1   16    5
 0.001057108683361091    1    1   16    6
 0.008768532516792996    1    1   16    7
 -0.006596376740224914    1    1   16    8
 0.002580854686141614    1    1   16    9
 -0.001473351417944221    1    1   16   10
 0.000543221798514968    1    1   16   11
 0.0001055785994321585    1    1   16   12
 -1.442881304973334e-05    1    1   16   13
 -0.0002979665836916773    1    1   16   14
 -0.0001676237398082079    1    1   16   15
 0.2627969275110321    1    1   16   16
 0.002826502945674484    1    1   17    1
 -5.84615317374731e-05    1    1   17    2
 0.001893376562176734    1    1   17    3
 0.003845723206153917    1    1   17    4
 0.001203595393581549    1    1   17    5
 0.0006987414727086179    1    1   17    6
 -0.0003986064305594487    1    1   17    7
 -0.0005220673259225087    1    1   17    8
 -0.003840017772095478    1    1   17    9
 -0.0001703316677880953    1    1   17   10
 0.0001705154819443903    1    1   17   11
 -0.001267927241662965    1    1   17   12
 0.001599206687000775    1    1   17   13
 0.000124832635759903    1    1   17   14
 -0.002866566260580866    1    1   17   15
 6.200772077803699e-05    1    1   17   16
 0.2613658178377004    1    1   17   17
 -0.004555497473081297    1    1   18    1
 0.0003207245481405445    1    1   18    2
 0.001756292082119118    1    1   18    3
 -0.006632341560641601    1    1   18    4
 0.0005250099143040675    1    1   18    5
 0.001660147212768004    1    1   18    6
 -0.0003270003536439343    1    1   18    7
 4.538415215384345e-05    1    1   18    8
 -0.0009586942334735867    1    1   18    9
 0.0002100642325516679    1    1   18   10
 0.0005107595529796733    1    1   18   11
 -0.0003388092350095389    1    1   18   12
 -0.003714548899830668    1    1   18   13
 -0.0005961070346038952    1    1   18   14
 -0.001502452771552653    1    1   18   15
 -1.287450225225184e-05    1    1   18   16
 0.0007889851544174091    1    1   18   17
 0.2594193533128175    1    1   18   18
 -0.0002178998304509938    1    1   19    1
 -0.0006929279776876207    1    1   19    2
 -0.0006128264396139472    1    1   19    3
 -0.0001777231512848926    1    1   19    4
 0.006357873932893096    1    1   19    5
 -0.001261567219659741    1    1   19    6
 -0.005260858498115392    1    1   19    7
 0.002932925173808104    1    1   19    8
 -4.144351945844212e-05    1    1   19    9
 -0.001049973284024768    1    1   19   10
 0.0002449004896652213    1    1   19   11
 -0.004687899364231354    1    1   19   12
 3.263728419657182e-05    1    1   19   13
 0.0003274898534705366    1    1   19   14
 0.0005528588845195522    1    1   19   15
 0.001093453277859003    1    1   19   16
 -0.001094487131211649    1    1   19   17
 -0.0001812790949746927    1    1   19   18
 0.2589253938258235    1    1   19   19
 -0.000243893647607831    1    1   20    1
 -0.002971820083847137    1    1   20    2
 0.0001938826364993992    1    1   20    3
 -6.162564230695637e-05    1    1   20    4
 -0.002695617194487343    1    1   20    5
 0.0002368061303157788    1    1   20    6
 -0.002613707182768779    1    1   20    7
 0.002655277310480318    1    1   20    8
 -0.0002134463398658622    1    1   20    9
 -0.00131575384385252    1    1   20   10
 0.0006061779106165342    1    1   20   11
 0.003904723797564128    1    1   20   12
 -6.19447106056398e-05    1    1   20   13
 -0.001037323331680845    1    1   20   14
 0.0001147897926066774    1    1   20   15
 0.003707345460566918    1    1   20   16
 0.00110290943293289    1    1   20   17
 0.000201066712887305    1    1   20   18
 0.003923146162585401    1    1   20   19
 0.2578585145995274    1    1   20   20
 -0.0005396033814132793    1    1   21    1
 0.0003345277975703852    1    1   21    2
 0.0002806990103230719    1    1   21    3
 0.0007265029516406414    1    1   21    4
 0.0002659997137699167    1    1   21    5
 0.003805758194649341    1    1   21    6
 -0.0008034196220114022    1    1   21    7
 0.0003719817093379614    1    1   21    8
 0.005857393852849935    1    1   21    9
 9.005194706821645e-05    1    1   21   10
 0.001762789077860153    1    1   21   11
 -0.0006572715238537765    1    1   21   12
 -7.970160467946386e-05    1    1   21   13
 -0.006650063413630145    1    1   21   14
 7.100280890185004e-05    1    1   21   15
 -0.0006629579050797313    1    1   21   16
 -0.0004392870189743455    1    1   21   17
 -0.0009826887214039607    1    1   21   18
 -0.0001466034899954439    1    1   21   19
 -0.0005040550531515546    1    1   21   20
 0.2540139839557338    1    1   21   21
 -0.003370237240782354    1    1   22    1
 -0.001658636601341036    1    1   22    2
 -0.002039815558653315    1    1   22    3
 -0.01506177199548906    1    1   22    4
 0.0002986385532959258    1    1   22    5
 0.0003272580828472432    1    1   22    6
 5.588597463408859e-05    1    1   22    7
 -0.0006003272544051481    1    1   22    8
 -0.001868288554835127    1    1   22    9
 0.0003734740813011933    1    1   22   10
 0.001199365906461896    1    1   22   11
 0.0001510256318297365    1    1   22   12
 -0.002657516782239416    1    1   22   13
 0.0004386471082099647    1    1   22   14
 0.00120538381627609    1    1   22   15
 0.0002442348366925177    1    1   22   16
 0.004253183115627492    1    1   22   17
 -0.004575694872135667    1    1   22   18
 -0.000772239195985265    1    1   22   19
 -0.0001190597547454215    1    1   22   20
 0.0007493648889287401    1    1   22   21
 0.251383342586212    1    1   22   22
 0.005007990351205382    2    1    1    1
 0.08995346079317235    2    1    2    1
 -0.01800615679636649    2    1    2    2
 -0.002102744134669731    2    1    3    1
 -0.07214509478564321    2    1    3    2
 0.01110023973025292    2    1    3    3
 0.000115541581089695    2    1    4    1
 0.01531652363277218    2    1    4    2
 0.0007871131833875971    2    1    4    3
 0.0006308929246842267    2    1    4    4
 0.003924315697964153    2    1    5    1
 -0.0001017602713131381    2    1    5    2
 -0.01753365965151195    2    1    5    3
 0.008599420566596074    2    1    5    4
 0.002664619158396068    2    1    5    5
 0.00372910282142807    2    1    6    1
 -0.01893330837778212    2    1    6    2
 -0.0009223908147607509    2    1    6    3
 0.002646305327733147    2    1    6    4
 0.02221882963922898    2    1    6    5
 -0.000580040569193079    2    1    6    6
 0.02082483660587328    2    1    7    1
 0.002328038296020643    2    1    7    2
 -0.01859971467019283    2    1    7    3
 0.01544902559817291    2    1    7    4
 -0.0090021004607702    2    1    7    5
 0.0005353003376597768    2    1    7    6
 -0.001840525200614945    2    1    7    7
 -0.009870943231777772    2    1    8    1
 0.001120322456761642    2    1    8    2
 -0.005820009931855298    2    1    8    3
 -0.007626794522062185    2    1    8    4
 0.006522728203714561    2    1    8    5
 0.03403468262511933    2    1    8    6
 -0.007423929262658104    2    1    8    7
 0.01346133196571054    2    1    8    8
 0.0006313923522703417    2    1    9    1
 -0.01143719476609549    2    1    9    2
 0.002398408527154346    2    1    9    3
 0.0008040185166989345    2    1    9    4
 0.03505402322519863    2    1    9    5
 -0.003781241480122276    2    1    9    6
 0.01259356384055362    2    1    9    7
 0.04282893821384393    2    1    9    8
 -0.01243033346790741    2    1    9    9
 -0.007013586439994832    2    1   10    1
 0.002572715939750678    2    1   10    2
 0.01550967825914783    2    1   10    3
 -0.00557098359924981    2    1   10    4
 -0.004394892717657621    2    1   10    5
 -0.001122988863157541    2    1   10    6
 0.005502384739086365    2    1   10    7
 -0.01227609427999598    2    1   10    8
 -0.02833997994962085    2    1   10    9
 0.0123127476489884    2    1   10   10
 0.0003544967768177839    2    1   11    1
 0.008308110465056862    2    1   11    2
 -0.003518210001707432    2    1   11    3
 0.002138111318737344    2    1   11    4
 -0.01238038819325266    2    1   11    5
 0.0008824046013953058    2    1   11    6
 0.003011838264155049    2    1   11    7
 -0.02687821045465699    2    1   11    8
 0.01217095750325154    2    1   11    9
 0.01994433392758095    2    1   11   10
 -0.01069258804429505    2    1   11   11
 -0.005457559642079785    2    1   12    1
 0.0005271269223062113    2    1   12    2
 0.002851268599235476    2    1   12    3
 -0.001136986765491662    2    1   12    4
 -6.807269786501778e-05    2    1   12    5
 -9.663791000367496e-05    2    1   12    6
 0.0002701716357944069    2    1   12    7
 -0.0004529456580207134    2    1   12    8
 -0.001417636098579906    2    1   12    9
 3.538113705218227e-05    2    1   12   10
 0.0001312274675807865    2    1   12   11
 0.001090270143223643    2    1   12   12
 4.188528283337588e-05    2    1   13    1
 0.001717771454846381    2    1   13    2
 -6.887276162357232e-05    2    1   13    3
 -1.432746386580849e-05    2    1   13    4
 -0.0003165250643420257    2    1   13    5
 -0.0002867241032098104    2    1   13    6
 -0.001109466282198203    2    1   13    7
 0.001076010842257846    2    1   13    8
 -0.0004349542448898521    2    1   13    9
 0.0004713796450947652    2    1   13   10
 6.793230217554168e-05    2    1   13   11
 0.00166969860669264    2    1   13   12
 0.001133949267786484    2    1   13   13
 0.0003870391566182382    2    1   14    1
 0.003479626986161434    2    1   14    2
 -0.000644431917492941    2    1   14    3
 4.674319136115699e-05    2    1   14    4
 -0.001507723629304834    2    1   14    5
 -0.0001889390599897809    2    1   14    6
 -0.0003804047928528289    2    1   14    7
 -0.003461397565142903    2    1   14    8
 0.0004593833454424163    2    1   14    9
 0.0002613528194879997    2    1   14   10
 0.0001273473119679857    2    1   14   11
 0.0009245323718077679    2    1   14   12
 0.0001418063248641109    2    1   14   13
 0.00114401998009923    2    1   14   14
 -0.0005418116344612236    2    1   15    1
 0.008060533351111546    2    1   15    2
 -0.0003966334082016921    2    1   15    3
 -0.0005071798887886736    2    1   15    4
 0.00174576723145931    2    1   15    5
 0.00061751617521572    2    1   15    6
 0.002798167026603348    2    1   15    7
 -0.0002082192468284401    2    1   15    8
 -5.129094802439169e-05    2    1   15    9
 -0.002873262308672673    2    1   15   10
 0.000451221171630296    2    1   15   11
 -0.003778922957094829    2    1   15   12
 -0.0001750924256604513    2    1   15   13
 0.0002101451694839731    2    1   15   14
 0.0009857628322229987    2    1   15   15
 -0.00930759256857904    2    1   16    1
 0.0009966353602744054    2    1   16    2
 0.00927571451917945    2    1   16    3
 -0.004638728694642942    2    1   16    4
 0.000209425862454452    2    1   16    5
 0.003849619568333431    2    1   16    6
 -0.0007522042247332758    2    1   16    7
 -0.0001261639840921489    2    1   16    8
 0.001255193454944401    2    1   16    9
 -0.0007114004646826227    2    1   16   10
 -0.002927244445598984    2    1   16   11
 -0.000132934984588134    2    1   16   12
 -0.001527725605724464    2    1   16   13
 -0.003944529027897666    2    1   16   14
 -0.003073725977002547    2    1   16   15
 0.0008473268884352151    2    1   16   16
 -0.000191873656047084    2    1   17    1
 0.002932764252645082    2    1   17    2
 -0.00118026007627543    2    1   17    3
 -0.0002549358845145424    2    1   17    4
 0.00147973075676424    2    1   17    5
 0.0005333698181037164    2    1   17    6
 0.002578018485002821    2    1   17    7
 -0.0005263984829010278    2    1   17    8
 -0.0002672526482521178    2    1   17    9
 -0.001922183244163103    2    1   17   10
 0.0002429311844385802    2    1   17   11
 -0.003720801372659308    2    1   17   12
 0.0002734444805169492    2    1   17   13
 0.0007936240426412658    2    1   17   14
 -0.0004405842705394913    2    1   17   15
 -0.001762776477095026    2    1   17   16
 -0.001000164694102637    2    1   17   17
 -1.761346057017537e-06    2    1   18    1
 0.005637397820198702    2    1   18    2
 -0.0005004961854384569    2    1   18    3
 -0.0002305210447608724    2    1   18    4
 -0.0003505549175188202    2    1   18    5
 -0.0001195352219055678    2    1   18    6
 -0.0009675636008201279    2    1   18    7
 0.001658175349049258    2    1   18    8
 -0.0006955198142424644    2    1   18    9
 -2.259411093428763e-05    2    1   18   10
 7.951834114239414e-05    2    1   18   11
 -0.0004979565975527207    2    1   18   12
 1.957951494771764e-05    2    1   18   13
 0.0004197873823779899    2    1   18   14
 -0.0002641304008387317    2    1   18   15
 -0.001991652901922051    2    1   18   16
 -0.0003159206123438696    2    1   18   17
 0.0009923621071150736    2    1   18   18
 -0.001111283840444715    2    1   19    1
 -0.001850035308540729    2    1   19    2
 -0.005879416667284604    2    1   19    3
 -0.0008912805030950212    2    1   19    4
 -0.0001197597355351528    2    1   19    5
 4.522912170524612e-05    2    1   19    6
 -5.122558164539964e-05    2    1   19    7
 -0.0004114545767141867    2    1   19    8
 -0.001984589617367056    2    1   19    9
 0.0002023504350937076    2    1   19   10
 -0.0003056110176804937    2    1   19   11
 0.0009356330042014942    2    1   19   12
 0.002245697326549608    2    1   19   13
 0.003780464676418942    2    1   19   14
 -0.001484238252697825    2    1   19   15
 0.000676791876825497    2    1   19   16
 -0.005155444879503277    2    1   19   17
 0.002034803338828197    2    1   19   18
 0.002879904794771617    2    1   19   19
 0.0006617007741212241    2    1   20    1
 -0.0008939456096420024    2    1   20    2
 -0.002734497150856435    2    1   20    3
 0.0008402655792972397    2    1   20    4
 -0.000180168408273859    2    1   20    5
 -0.001949623514646992    2    1   20    6
 0.0001876586575802526    2    1   20    7
 3.989968646495239e-05    2    1   20    8
 0.0009464721377160412    2    1   20    9
 0.0003897282665186234    2    1   20   10
 0.001569687150409793    2    1   20   11
 0.0003698246190387314    2    1   20   12
 0.0008593979362682359    2    1   20   13
 0.001907746913273647    2    1   20   14
 0.00361190375161252    2    1   20   15
 -2.418982838227686e-05    2    1   20   16
 0.004838302938380346    2    1   20   17
 0.004117000060535379    2    1   20   18
 -0.000703823374114439    2    1   20   19
 0.001568916293410942    2    1   20   20
 -0.0003103993158971152    2    1   21    1
 -0.005405486841011282    2    1   21    2
 0.0009287565368982211    2    1   21    3
 -0.00024841234962736    2    1   21    4
 0.0003843024733932093    2    1   21    5
 0.000104860850121764    2    1   21    6
 5.210134563870712e-05    2    1   21    7
 -0.002792576166478727    2    1   21    8
 0.0005780555493376179    2    1   21    9
 -0.001012070954789192    2    1   21   10
 0.0002239722833962545    2    1   21   11
 0.002419972154617489    2    1   21   12
 0.0001061223002926773    2    1   21   13
 -0.0005915269513634509    2    1   21   14
 -0.0005130061839634922    2    1   21   15
 -0.002897420618468281    2    1   21   16
 0.0004466364620681222    2    1   21   17
 0.0001316842477195528    2    1   21   18
 0.006775088835511742    2    1   21   19
 0.003328268018746591    2    1   21   20
 -0.0001812830494086644    2    1   21   21
 -0.0008750059413328711    2    1   22    1
 -0.02922722671375082    2    1   22    2
 0.0003552937270853295    2    1   22    3
 -9.11571062192657e-05    2    1   22    4
 -0.00324193803496779    2    1   22    5
 -0.00085802934702481    2    1   22    6
 -0.004967831437659411    2    1   22    7
 0.003698351538386998    2    1   22    8
 -0.0002972675070938106    2    1   22    9
 0.003824762507323981    2    1   22   10
 -0.0004765887949981665    2    1   22   11
 0.002634808041048872    2    1   22   12
 -0.0001405291957075848    2    1   22   13
 -0.0001611547559246104    2    1   22   14
 0.0009954030220601423    2    1   22   15
 0.01141526700585576    2    1   22   16
 0.0004325852392406792    2    1   22   17
 0.0002661744497077575    2    1   22   18
 -0.007262422006315124    2    1   22   19
 -0.01559814422515942    2    1   22   20
 0.002256970614152564    2    1   22   21
 0.0005672971688457251    2    1   22   22
 0.2675275486083739    2    2    1    1
 -0.0180061567963665    2    2    2    1
 0.3516476310002043    2    2    2    2
 -0.07248478583499113    2    2    3    1
 0.008996621116848237    2    2    3    2
 0.247036000553469    2    2    3    3
 0.02896267673720768    2    2    4    1
 -0.002765331057490549    2    2    4    2
 -0.01571499921290927    2    2    4    3
 0.1765644213569504    2    2    4    4
 -0.00129579845529967    2    2    5    1
 0.01024298911559418    2    2    5    2
 0.002211548158209369    2    2    5    3
 -0.003219812109741127    2    2    5    4
 0.1854547360854762    2    2    5    5
 -0.01882061577180048    2    2    6    1
 0.009099821591781129    2    2    6    2
 0.008864965510463845    2    2    6    3
 -0.01280994124518284    2    2    6    4
 0.0004426763393584546    2    2    6    5
 0.1924920981536094    2    2    6    6
 0.0001049943738347562    2    2    7    1
 0.02889966168572794    2    2    7    2
 0.002066964696336136    2    2    7    3
 -0.003488566979004476    2    2    7    4
 0.01966498984878612    2    2    7    5
 -0.005490419808717807    2    2    7    6
 0.1830859726655389    2    2    7    7
 0.001630837987417141    2    2    8    1
 -0.01761546420185248    2    2    8    2
 -0.002808637021709623    2    2    8    3
 0.003461910796673425    2    2    8    4
 0.04082740680323546    2    2    8    5
 -0.003397023947603161    2    2    8    6
 -0.006476676637662908    2    2    8    7
 0.2106216065774336    2    2    8    8
 -0.005416073126548074    2    2    9    1
 0.005626335469019011    2    2    9    2
 -0.01914789615781607    2    2    9    3
 0.009495962776207624    2    2    9    4
 -0.01015958511435567    2    2    9    5
 0.03222458560323189    2    2    9    6
 -0.01364921798286881    2    2    9    7
 -0.002625908174825835    2    2    9    8
 0.2222374162180054    2    2    9    9
 0.001858954074303466    2    2   10    1
 -0.01319447539055136    2    2   10    2
 2.863906846947814e-05    2    2   10    3
 0.004561331739396296    2    2   10    4
 -0.02622044183387959    2    2   10    5
 -0.006706586979482222    2    2   10    6
 -0.008538252746150832    2    2   10    7
 -0.02087102338403502    2    2   10    8
 -0.005054458019566617    2    2   10    9
 0.1841458909190997    2    2   10   10
 0.00481231175501835    2    2   11    1
 -0.001235306513782026    2    2   11    2
 0.004857403597929092    2    2   11    3
 0.008280551496808834    2    2   11    4
 0.005943302686492573    2    2   11    5
 -0.01275913971594644    2    2   11    6
 0.007039230257736801    2    2   11    7
 0.0008650449273721543    2    2   11    8
 -0.05446714515782784    2    2   11    9
 -0.0008523095147563001    2    2   11   10
 0.1960841575340429    2    2   11   11
 0.001079831243172435    2    2   12    1
 -0.001338717517003103    2    2   12    2
 -0.0002340203903007578    2    2   12    3
 0.0003244574922682417    2    2   12    4
 0.005611943320403753    2    2   12    5
 -0.001440183517150686    2    2   12    6
 -0.00795862076464591    2    2   12    7
 0.001041906172217091    2    2   12    8
 -8.193806155095285e-05    2    2   12    9
 0.003405306195116487    2    2   12   10
 -0.0002258240378178342    2    2   12   11
 0.2751435922978238    2    2   12   12
 -0.000902804248248169    2    2   13    1
 -0.0004206375291433675    2    2   13    2
 -0.00115925000606534    2    2   13    3
 -0.003010136181868936    2    2   13    4
 0.000146677519159334    2    2   13    5
 0.001193570107613009    2    2   13    6
 3.927423364503238e-05    2    2   13    7
 -0.000261108092592549    2    2   13    8
 -0.0005630219471517847    2    2   13    9
 -1.416465066242289e-05    2    2   13   10
 -0.0005388051347314358    2    2   13   11
 -0.0004799303532736551    2    2   13   12
 0.2759523711805113    2    2   13   13
 0.004234597229679573    2    2   14    1
 7.077263118974909e-05    2    2   14    2
 0.0003735883136761159    2    2   14    3
 0.001614030087451852    2    2   14    4
 -0.0002698364409743685    2    2   14    5
 0.001755621206516679    2    2   14    6
 -0.0001663356767437875    2    2   14    7
 0.001594298001130716    2    2   14    8
 0.00570780238896987    2    2   14    9
 0.0005652343103849844    2    2   14   10
 0.005498481857890036    2    2   14   11
 -0.0001629309981354234    2    2   14   12
 -0.002567735674510775    2    2   14   13
 0.2763543817526913    2    2   14   14
 0.007568812076110529    2    2   15    1
 -0.002594374199911974    2    2   15    2
 0.002926131167499975    2    2   15    3
 0.005509313052115285    2    2   15    4
 0.0002117030426500407    2    2   15    5
 0.008171379367613106    2    2   15    6
 -0.0007310031424358641    2    2   15    7
 -0.001675900953382077    2    2   15    8
 -0.007501421993499941    2    2   15    9
 -0.0009281309780858993    2    2   15   10
 -0.006731680812106323    2    2   15   11
 0.0005061791429308975    2    2   15   12
 0.0008682717773797365    2    2   15   13
 -0.001483431927310726    2    2   15   14
 0.2725000586258398    2    2   15   15
 0.001141071874651574    2    2   16    1
 -0.01316110951302919    2    2   16    2
 -0.001128328224671449    2    2   16    3
 0.0009567113827774383    2    2   16    4
 0.001568002268443103    2    2   16    5
 -0.000287788567509976    2    2   16    6
 0.007607416306075861    2    2   16    7
 -0.004540587449648812    2    2   16    8
 0.002477459941559621    2    2   16    9
 0.001289548955570518    2    2   16   10
 0.001214970910523037    2    2   16   11
 0.003164574327340419    2    2   16   12
 3.464195925111137e-05    2    2   16   13
 0.0002415567417030925    2    2   16   14
 0.001035967634256294    2    2   16   15
 0.2798637099939673    2    2   16   16
 0.003458684108728966    2    2   17    1
 0.0005797747010633836    2    2   17    2
 0.006107243990241449    2    2   17    3
 0.005164855551342179    2    2   17    4
 0.0008989892853216956    2    2   17    5
 0.001518114417051178    2    2   17    6
 -0.001786736323215226    2    2   17    7
 -0.0001376046422637187    2    2   17    8
 -0.002852927782591036    2    2   17    9
 0.0002326563738195445    2    2   17   10
 -0.001151733746204733    2    2   17   11
 -0.001220423933688733    2    2   17   12
 0.003174710144139501    2    2   17   13
 -0.001530235944572404    2    2   17   14
 -0.006039676500772509    2    2   17   15
 0.001086512440599635    2    2   17   16
 0.2685738558367686    2    2   17   17
 -0.002162704015218303    2    2   18    1
 -0.001026196309328135    2    2   18    2
 0.0003829194812102654    2    2   18    3
 -0.006654718756012013    2    2   18    4
 0.0007115628755522732    2    2   18    5
 0.003891093727931174    2    2   18    6
 -0.0005819845274157621    2    2   18    7
 -0.0006110023970150948    2    2   18    8
 -0.002246943212559524    2    2   18    9
 -3.87342129339535e-05    2    2   18   10
 -0.001643090671263502    2    2   18   11
 -0.0005834325806977675    2    2   18   12
 -0.004598162769799518    2    2   18   13
 -0.002702222346931649    2    2   18   14
 -0.002582655007283381    2    2   18   15
 0.0005342298047542692    2    2   18   16
 0.0007404509040324035    2    2   18   17
 0.2708312213896096    2    2   18   18
 -0.0003057043383611966    2    2   19    1
 0.006759330785938497    2    2   19    2
 -0.0002289824649802186    2    2   19    3
 -0.0002963755037643277    2    2   19    4
 0.006072099321782777    2    2   19    5
 -0.001968867830102014    2    2   19    6
 -0.007425071860908078    2    2   19    7
 0.001977299944788067    2    2   19    8
 6.697198541517651e-05    2    2   19    9
 -0.000553181968733617    2    2   19   10
 0.0004619729163042682    2    2   19   11
 -0.008463521867766662    2    2   19   12
 -0.0006876593997457958    2    2   19   13
 0.0001443034028560455    2    2   19   14
 0.00144107698764472    2    2   19   15
 0.001789268645095372    2    2   19   16
 -0.0001411170034460668    2    2   19   17
 -0.0009928408166861654    2    2   19   18
 0.2663006963570245    2    2   19   19
 -0.0003967761798812649    2    2   20    1
 0.0003205738752716805    2    2   20    2
 0.0008669635998669485    2    2   20    3
 -8.830064894070852e-05    2    2   20    4
 -0.002162376936536554    2    2   20    5
 0.001318877777987829    2    2   20    6