 &FCI NORB=   5,NELEC= 7,MS2=3,
  ORBSYM=1,1,1,1,1,
  ISYM=1,
 &END
 0.9365903479564335    1    1    1    1
 0.0006700863168807478    1    1    2    1
 0.8532440783092033    1    1    2    2
 0.0003241080868241797    1    1    3    1
 -1.535942815469156e-05    1    1    3    2
 0.8588384961148985    1    1    3    3
 0.0003778341917086028    1    1    4    1
 9.203746600717847e-05    1    1    4    2
 0.00352884782449198    1    1    4    3
 0.845794287342261    1    1    4    4
 -0.001192610864342872    1    1    5    1
 -0.0006398154484156029    1    1    5    2
 0.001414467317323616    1    1    5    3
 0.0005947390823683159    1    1    5    4
 0.8846051360043921    1    1    5    5
 0.0006700863168808188    2    1    1    1
 0.04122858412423395    2    1    2    1
 0.0007759555600124439    2    1    2    2
 0.0002862281857810747    2    1    3    1
 0.000275848273386785    2    1    3    2
 -0.0179426496063521    2    1    3    3
 9.786145005455985e-05    2    1    4    1
 9.521945575367013e-05    2    1    4    2
 -0.007815978617209514    2    1    4    3
 0.010486787450032    2    1    4    4
 0.0001559739597733244    2    1    5    1
 -0.0001264606759412273    2    1    5    2
 0.001647353138098335    2    1    5    3
 5.420111601830313e-06    2    1    5    4
 0.009459519808968163    2    1    5    5
 0.8532440783092038    2    2    1    1
 0.0007759555600123237    2    2    2    1
 0.9344907380127763    2    2    2    2
 -0.0002899942076396201    2    2    3    1
 0.0006071025431070839    2    2    3    2
 0.863010304385368    2    2    3    3
 0.000213360003543653    2    2    4    1
 0.0002829519798673173    2    2    4    2
 -0.00364145072596822    2    2    4    3
 0.8773488031348344    2    2    4    4
 -0.0008296798924198597    2    2    5    1
 -0.000287953242543399    2    2    5    2
 -0.0002581261469213845    2    2    5    3
 -0.001696778236441176    2    2    5    4
 0.8463188863435481    2    2    5    5
 0.0003241080868243043    3    1    1    1
 0.000286228185781118    3    1    2    1
 -0.0002899942076397659    3    1    2    2
 0.03130853051016095    3    1    3    1
 0.009494131765007638    3    1    3    2
 0.000369989501469982    3    1    3    3
 -0.001890546610165149    3    1    4    1
 0.003784310136128389    3    1    4    2
 0.0008386851113835797    3    1    4    3
 0.001450531050419447    3    1    4    4
 -0.0004506551661874368    3    1    5    1
 -0.0009168827723349445    3    1    5    2
 0.001021800519384544    3    1    5    3
 0.01343866353723765    3    1    5    4
 -0.0003395268372617801    3    1    5    5
 -1.535942815455306e-05    3    2    1    1
 0.0002758482733868088    3    2    2    1
 0.0006071025431070202    3    2    2    2
 0.009494131765007687    3    2    3    1
 0.02858989249023991    3    2    3    2
 0.0006525530077570276    3    2    3    3
 0.004120587291002426    3    2    4    1
 0.001732151604389267    3    2    4    2
 -0.0004163701515201343    3    2    4    3
 0.001507418494385242    3    2    4    4
 -0.0007577554100976989    3    2    5    1
 0.0004206543942597616    3    2    5    2
 -0.004273169505449864    3    2    5    3
 0.01101823538908189    3    2    5    4
 7.270155831935304e-05    3    2    5    5
 0.8588384961148986    3    3    1    1
 -0.01794264960635219    3    3    2    1
 0.8630103043853685    3    3    2    2
 0.0003699895014701315    3    3    3    1
 0.0006525530077572758    3    3    3    2
 0.905898735506393    3    3    3    3
 -0.001260876602419376    3    3    4    1
 0.001092749600355731    3    3    4    2
 -0.0005827033441170346    3    3    4    3
 0.8382392951582909    3    3    4    4
 -0.003009129556529612    3    3    5    1
 0.00828962043126638    3    3    5    2
 0.0006007889719029909    3    3    5    3
 0.0005253642012172255    3    3    5    4
 0.8421683750391741    3    3    5    5
 0.0003778341917086926    4    1    1    1
 9.786145005455049e-05    4    1    2    1
 0.0002133600035437838    4    1    2    2
 -0.001890546610165159    4    1    3    1
 0.004120587291002439    4    1    3    2
 -0.001260876602419447    4    1    3    3
 0.03821002520439132    4    1    4    1
 -0.004959429951356014    4    1    4    2
 -0.0005936461960821933    4    1    4    3
 0.0003891880335491582    4    1    4    4
 -0.0004257806941021539    4    1    5    1
 0.0002721262775641783    4    1    5    2
 -0.01677594818264515    4    1    5    3
 -0.0009666214048150012    4    1    5    4
 0.002083464451478609    4    1    5    5
 9.203746600696252e-05    4    2    1    1
 9.5219455753697e-05    4    2    2    1
 0.0002829519798671838    4    2    2    2
 0.003784310136128484    4    2    3    1
 0.001732151604389242    4    2    3    2
 0.001092749600355686    4    2    3    3
 -0.004959429951356002    4    2    4    1
 0.0216041709295758    4    2    4    2
 -0.0004864680238371231    4    2    4    3
 0.0002735259958121265    4    2    4    4
 -0.0002673660967807253    4    2    5    1
 0.0007437417090843293    4    2    5    2
 0.00423427673480281    4    2    5    3
 0.004070738776061635    4    2    5    4
 -0.0004579060045267116    4    2    5    5
 0.003528847824491885    4    3    1    1
 -0.007815978617209502    4    3    2    1
 -0.003641450725968306    4    3    2    2
 0.0008386851113835552    4    3    3    1
 -0.000416370151520118    4    3    3    2
 -0.0005827033441168456    4    3    3    3
 -0.0005936461960821734    4    3    4    1
 -0.0004864680238371178    4    3    4    2
 0.03488955124513971    4    3    4    3
 0.000129156974673303    4    3    4    4
 0.003342501610925719    4    3    5    1
 -0.01537492585862813    4    3    5    2
 -0.0003356403843845907    4    3    5    3
 9.801899064224804e-05    4    3    5    4
 -0.000467355455646443    4    3    5    5
 0.8457942873422607    4    4    1    1
 0.01048678745003191    4    4    2    1
 0.8773488031348348    4    4    2    2
 0.001450531050419443    4    4    3    1
 0.001507418494385313    4    4    3    2
 0.8382392951582897    4    4    3    3
 0.0003891880335490968    4    4    4    1
 0.0002735259958125218    4    4    4    2
 0.0001291569746733654    4    4    4    3
 0.9071293922448822    4    4    4    4
 0.0009609924392260467    4    4    5    1
 -0.008427311006863513    4    4    5    2
 0.0003059847170238709    4    4    5    3
 -0.0001842532562448836    4    4    5    4
 0.8423335260018785    4    4    5    5
 -0.001192610864342919    5    1    1    1
 0.0001559739597733369    5    1    2    1
 -0.0008296798924198765    5    1    2    2
 -0.0004506551661874141    5    1    3    1
 -0.0007577554100977159    5    1    3    2
 -0.003009129556529573    5    1    3    3
 -0.0004257806941021545    5    1    4    1
 -0.0002673660967807279    5    1    4    2
 0.003342501610925725    5    1    4    3
 0.0009609924392260462    5    1    4    4
 0.02052294894975046    5    1    5    1
 -0.004485195799157429    5    1    5    2
 0.0003046463546138508    5    1    5    3
 -0.0008785378129888233    5    1    5    4
 -0.001173762398887352    5    1    5    5
 -0.0006398154484154593    5    2    1    1
 -0.0001264606759412223    5    2    2    1
 -0.0002879532425435349    5    2    2    2
 -0.0009168827723349691    5    2    3    1
 0.0004206543942597785    5    2    3    2
 0.00828962043126634    5    2    3    3
 0.0002721262775641758    5    2    4    1
 0.0007437417090843217    5    2    4    2
 -0.01537492585862814    5    2    4    3
 -0.008427311006863246    5    2    4    4
 -0.004485195799157432    5    2    5    1
 0.03961575691116724    5    2    5    2
 0.0002363445978630715    5    2    5    3
 0.000353527246340151    5    2    5    4
 -0.0002665079849871879    5    2    5    5
 0.001414467317323552    5    3    1    1
 0.001647353138098346    5    3    2    1
 -0.0002581261469213733    5    3    2    2
 0.001021800519384543    5    3    3    1
 -0.004273169505449864    5    3    3    2
 0.0006007889719030292    5    3    3    3
 -0.01677594818264517    5    3    4    1
 0.004234276734802798    5    3    4    2
 -0.0003356403843845986    5    3    4    3
 0.0003059847170237901    5    3    4    4
 0.0003046463546138501    5    3    5    1
 0.0002363445978630864    5    3    5    2
 0.0351567533463196    5    3    5    3
 0.0001357449700239588    5    3    5    4
 0.0004632984754111262    5    3    5    5
 0.0005947390823683261    5    4    1    1
 5.420111601847888e-06    5    4    2    1
 -0.001696778236441198    5    4    2    2
 0.01343866353723764    5    4    3    1
 0.01101823538908192    5    4    3    2
 0.0005253642012172867    5    4    3    3
 -0.0009666214048150096    5    4    4    1
 0.004070738776061613    5    4    4    2
 9.801899064226342e-05    5    4    4    3
 -0.0001842532562448297    5    4    4    4
 -0.0008785378129888136    5    4    5    1
 0.0003535272463401805    5    4    5    2
 0.0001357449700239517    5    4    5    3
 0.03531259919130898    5    4    5    4
 -0.00030797862757278    5    4    5    5
 0.8846051360043924    5    5    1    1
 0.009459519808968236    5    5    2    1
 0.8463188863435475    5    5    2    2
 -0.0003395268372618604    5    5    3    1
 7.270155831924162e-05    5    5    3    2
 0.8421683750391741    5    5    3    3
 0.002083464451478579    5    5    4    1
 -0.0004579060045267943    5    5    4    2
 -0.0004673554556462867    5    5    4    3
 0.8423335260018786    5    5    4    4
 -0.00117376239888734    5    5    5    1
 -0.000266507984987213    5    5    5    2
 0.0004632984754111465    5    5    5    3
 -0.0003079786275727486    5    5    5    4
 0.9148213195520044    5    5    5    5
 -5.458313991079154    1    1  0  0
 -0.004196593492455275    2    1  0  0
 -5.461825535285442    2    2  0  0
 -0.001050050444430411    3    1  0  0
 -0.0026399912098605    3    2  0  0
 -5.361994163057552    3    3  0  0
 -0.002017586370527156    4    1  0  0
 -0.001299025032426925    4    2  0  0
 0.0006346911057247428    4    3  0  0
 -5.365565944176029    4    4  0  0
 0.005992097321264612    5    1  0  0
 0.002111014604646519    5    2  0  0
 -0.003950959200678706    5    3  0  0
 0.002247139828811575    5    4  0  0
 -5.396818899382782    5    5  0  0
 -3884.361226765316  0  0  0  0
